   
Directorio /scratch/orca/aga/C=P_pbe__ILVC9z creado correctamente en el nodo nv68
   
Job started from scc_ser_1, running on nv68 in /scratch/orca/aga/C=P_pbe__ILVC9z using /home/apps/orca_4_2_1_linux_x86-64_openmpi314/orca
   
scp  nv68:/scratch/orca/aga/C=P_pbe__ILVC9z/*.xyz .

                                 *****************
                                 * O   R   C   A *
                                 *****************

           --- An Ab Initio, DFT and Semiempirical electronic structure package ---

                  #######################################################
                  #                        -***-                        #
                  #          Department of theory and spectroscopy      #
                  #               Directorship: Frank Neese             #
                  #        Max Planck Institute fuer Kohlenforschung    #
                  #                Kaiser Wilhelm Platz 1               #
                  #                 D-45470 Muelheim/Ruhr               #
                  #                      Germany                        #
                  #                                                     #
                  #                  All rights reserved                #
                  #                        -***-                        #
                  #######################################################


                         Program Version 4.2.1 -  RELEASE  -


 With contributions from (in alphabetic order):
   Daniel Aravena         : Magnetic Suceptibility
   Michael Atanasov       : Ab Initio Ligand Field Theory (pilot matlab implementation)
   Alexander A. Auer      : GIAO ZORA, VPT2
   Ute Becker             : Parallelization
   Giovanni Bistoni       : ED, misc. LED, open-shell LED, HFLD
   Martin Brehm           : Molecular dynamics
   Dmytro Bykov           : SCF Hessian
   Vijay G. Chilkuri      : MRCI spin determinant printing, contributions to CSF-ICE
   Dipayan Datta          : RHF DLPNO-CCSD density
   Achintya Kumar Dutta   : EOM-CC, STEOM-CC
   Dmitry Ganyushin       : Spin-Orbit,Spin-Spin,Magnetic field MRCI
   Miquel Garcia          : C-PCM Hessian, Gaussian charge scheme
   Yang Guo               : DLPNO-NEVPT2, CIM, IAO-localization
   Andreas Hansen         : Spin unrestricted coupled pair/coupled cluster methods
   Benjamin Helmich-Paris : CASSCF linear response (MC-RPA)
   Lee Huntington         : MR-EOM, pCC
   Robert Izsak           : Overlap fitted RIJCOSX, COSX-SCS-MP3, EOM
   Christian Kollmar      : KDIIS, OOCD, Brueckner-CCSD(T), CCSD density
   Simone Kossmann        : Meta GGA functionals, TD-DFT gradient, OOMP2, MP2 Hessian
   Martin Krupicka        : AUTO-CI
   Lucas Lang             : DCDCAS
   Dagmar Lenk            : GEPOL surface, SMD
   Dimitrios Liakos       : Extrapolation schemes; Compound Job, initial MDCI parallelization
   Dimitrios Manganas     : Further ROCIS development; embedding schemes
   Dimitrios Pantazis     : SARC Basis sets
   Taras Petrenko         : DFT Hessian,TD-DFT gradient, ASA, ECA, R-Raman, ABS, FL, XAS/XES, NRVS
   Peter Pinski           : DLPNO-MP2, DLPNO-MP2 Gradient
   Christoph Reimann      : Effective Core Potentials
   Marius Retegan         : Local ZFS, SOC
   Christoph Riplinger    : Optimizer, TS searches, QM/MM, DLPNO-CCSD(T), (RO)-DLPNO pert. Triples
   Tobias Risthaus        : Range-separated hybrids, TD-DFT gradient, RPA, STAB
   Michael Roemelt        : Original ROCIS implementation
   Masaaki Saitow         : Open-shell DLPNO-CCSD energy and density
   Barbara Sandhoefer     : DKH picture change effects
   Avijit Sen             : IP-ROCIS
   Kantharuban Sivalingam : CASSCF convergence, NEVPT2, FIC-MRCI
   Bernardo de Souza      : ESD, SOC TD-DFT
   Georgi Stoychev        : AutoAux, RI-MP2 NMR
   Willem Van den Heuvel  : Paramagnetic NMR
   Boris Wezisla          : Elementary symmetry handling
   Frank Wennmohs         : Technical directorship


 We gratefully acknowledge several colleagues who have allowed us to
 interface, adapt or use parts of their codes:
   Stefan Grimme, W. Hujo, H. Kruse,             : VdW corrections, initial TS optimization,
                  C. Bannwarth                     DFT functionals, gCP, sTDA/sTD-DF
   Ed Valeev, F. Pavosevic, A. Kumar             : LibInt (2-el integral package), F12 methods
   Garnet Chan, S. Sharma, J. Yang, R. Olivares  : DMRG
   Ulf Ekstrom                                   : XCFun DFT Library
   Mihaly Kallay                                 : mrcc  (arbitrary order and MRCC methods)
   Andreas Klamt, Michael Diedenhofen            : otool_cosmo (COSMO solvation model)
   Jiri Pittner, Ondrej Demel                    : Mk-CCSD
   Frank Weinhold                                : gennbo (NPA and NBO analysis)
   Christopher J. Cramer and Donald G. Truhlar   : smd solvation model
   Lars Goerigk                                  : TD-DFT with DH, B97 family of functionals
   V. Asgeirsson, H. Jonsson                     : NEB implementation
   FAccTs GmbH                                   : IRC, NEB, NEB-TS, Multilevel, MM, QM/MM, CI optimization
   S Lehtola, MJT Oliveira, MAL Marques          : LibXC Library


 Your calculation uses the libint2 library for the computation of 2-el integrals
 For citations please refer to: http://libint.valeyev.net

 Your ORCA version has been built with support for libXC version: 4.2.3
 For citations please refer to: https://tddft.org/programs/libxc/

 This ORCA versions uses:
   CBLAS   interface :  Fast vector & matrix operations
   LAPACKE interface :  Fast linear algebra routines
   SCALAPACK package :  Parallel linear algebra routines


Your calculation utilizes the geometrical counterpoise correction gCP
Please cite in your paper:
H.Kruse, S. Grimme J.Chem.Phys., 136, (2012), 154101 
   

Your calculation utilizes the atom-pairwise dispersion correction
with the Becke-Johnson damping scheme (D3BJ)
Cite in your paper:
S.Grimme, S.Ehrlich, L.Goerigk, J Comput Chem, (2011), 32, 1456–1465 
S.Grimme, J.Antony, S.Ehrlich and H.Krieg, J.Chem.Phys., 132, (2010), 154104 
   

Your calculation employs the composite approach PBEh-3c.
Please cite in your paper:
S. Grimme, J. G. Brandenburg, C. Bannwarth, A. Hansen J.Chem.Phys., 143, (2015), 054107 
   

----- Orbital basis set information -----
Your calculation utilizes the basis: def2-mSVP

----- AuxJ basis set information -----
Your calculation utilizes the auxiliary basis: def2/J
   F. Weigend, Phys. Chem. Chem. Phys. 8, 1057 (2006).

================================================================================
                                        WARNINGS
                       Please study these warnings very carefully!
================================================================================


WARNING: Split-RI-J cannot be used together with RIJONX
  ===> : Split-RI-J will be disabled

WARNING: Geometry Optimization
  ===> : Switching off AutoStart
         For restart on a previous wavefunction, please use MOREAD

INFO   : the flag for use of LIBINT has been found!

================================================================================
                                       INPUT FILE
================================================================================
NAME = C=P_pbe.inp
|  1> # C-C6H3F2=P-tBu
|  2> 
|  3> ! PBEh-3c TightSCF TightOpt
|  4> ! Grid6 GridX7 NoFinalGrid CPCM(toluene) Freq
|  5> ! PAL8
|  6> 
|  7> %maxcore 3000
|  8> %scf maxiter 250 end
|  9> 
| 10> *xyz 0 1
| 11>   C   0.00444591827306     -0.79327114800540      0.89248104692509
| 12>   H   0.22054148663014     -1.82040949898024      0.61353354411475
| 13>   P   -0.71051780258108      0.23742184239938     -0.21825316557875
| 14>   C   -0.93132910609063     -0.84804233620533     -1.75088911027859
| 15>   C   -1.57393439128153      0.05452110499005     -2.81487950601950
| 16>   H   -1.73410749794152     -0.51186455445684     -3.73658412369289
| 17>   H   -2.54170287215524      0.43771782000708     -2.48344820543977
| 18>   H   -0.93685140636606      0.90966390895399     -3.05195930984918
| 19>   C   0.42641186285602     -1.35106199772102     -2.25726588777382
| 20>   H   0.90368683653364     -2.02135163374125     -1.54134615398493
| 21>   H   0.28921250769986     -1.90344102438965     -3.19244336234472
| 22>   H   1.11222352340315     -0.52430482787966     -2.45386152317185
| 23>   C   -1.86231944628537     -2.02964621202769     -1.45097780281407
| 24>   H   -2.82819107299446     -1.69219898695401     -1.06897750448968
| 25>   H   -2.04471304611514     -2.59747593492201     -2.36895398472810
| 26>   H   -1.42908786083928     -2.71073495462129     -0.71734333455416
| 27>   C   0.40885889756983     -0.46115802549451      2.25222504052484
| 28>   C   1.05539382612092     -1.44290619598431      3.01660324787263
| 29>   C   0.18573751446362      0.80230722848821      2.82474944911041
| 30>   C   1.46036284826631     -1.14532378674785      4.30295048485869
| 31>   H   1.24531117004403     -2.42736115081894      2.61136116005750
| 32>   C   0.61033701526954      1.03801955559590      4.11212925839003
| 33>   H   -0.31079246182104      1.58995898158713      2.27516430915979
| 34>   C   1.25510751013836      0.08775771198918      4.89132955809711
| 35>   H   1.57710841551015      0.30202447290583      5.89994643107701
| 36>   F   0.39357914828130      2.25597143348312      4.65559541784298
| 37>   F   2.08799928341144     -2.10279024144983      5.02087320668920
| 38> *
| 39> 
| 40>                          ****END OF INPUT****
================================================================================

                       *****************************
                       * Geometry Optimization Run *
                       *****************************

Geometry optimization settings:
Update method            Update   .... BFGS
Choice of coordinates    CoordSys .... Z-matrix Internals
Initial Hessian          InHess   .... Almoef's Model

Convergence Tolerances:
Energy Change            TolE     ....  1.0000e-06 Eh
Max. Gradient            TolMAXG  ....  1.0000e-04 Eh/bohr
RMS Gradient             TolRMSG  ....  3.0000e-05 Eh/bohr
Max. Displacement        TolMAXD  ....  1.0000e-03 bohr
RMS Displacement         TolRMSD  ....  6.0000e-04 bohr
Strict Convergence                ....  False
------------------------------------------------------------------------------
                        ORCA OPTIMIZATION COORDINATE SETUP
------------------------------------------------------------------------------

The optimization will be done in new redundant internal coordinates
Making redundant internal coordinates   ...  (new redundants) done
Evaluating the initial hessian          ...  (Almloef) done
Evaluating the coordinates              ...  done
Calculating the B-matrix                .... done
Calculating the G-matrix                .... done
Diagonalizing the G-matrix              .... done
Small eigenvalue found = 5.420e-03
Small eigenvalue found = 1.949e-02
Small eigenvalue found = 2.227e-02
Small eigenvalue found = 2.436e-02
The first mode is                       ....   58
The number of degrees of freedom        ....   75

    -----------------------------------------------------------------
                    Redundant Internal Coordinates


    -----------------------------------------------------------------
         Definition                    Initial Value    Approx d2E/dq
    -----------------------------------------------------------------
      1. B(H   1,C   0)                  1.0861         0.365353   
      2. B(P   2,C   0)                  1.6755         0.735814   
      3. B(C   3,P   2)                  1.8910         0.333338   
      4. B(C   4,C   3)                  1.5361         0.365281   
      5. B(H   5,C   4)                  1.0936         0.355353   
      6. B(H   6,C   4)                  1.0924         0.356984   
      7. B(H   7,C   4)                  1.0924         0.356931   
      8. B(C   8,C   3)                  1.5339         0.368235   
      9. B(H   9,C   8)                  1.0907         0.359179   
     10. B(H  10,C   8)                  1.0948         0.353856   
     11. B(H  11,C   8)                  1.0920         0.357433   
     12. B(C  12,C   3)                  1.5339         0.368248   
     13. B(H  13,C  12)                  1.0921         0.357320   
     14. B(H  14,C  12)                  1.0947         0.353930   
     15. B(H  15,C  12)                  1.0908         0.359076   
     16. B(C  16,C   0)                  1.4570         0.488537   
     17. B(C  17,C  16)                  1.4022         0.597455   
     18. B(C  18,C  16)                  1.4050         0.591386   
     19. B(C  19,C  17)                  1.3810         0.645728   
     20. B(H  20,C  17)                  1.0814         0.371649   
     21. B(C  21,C  18)                  1.3759         0.657933   
     22. B(H  22,C  18)                  1.0812         0.371939   
     23. B(C  23,C  21)                  1.3878         0.629958   
     24. B(C  23,C  19)                  1.3816         0.644385   
     25. B(H  24,C  23)                  1.0802         0.373255   
     26. B(F  25,C  21)                  1.3512         0.599607   
     27. B(F  26,C  19)                  1.3513         0.599333   
     28. A(H   1,C   0,C  16)          113.5818         0.339872   
     29. A(P   2,C   0,C  16)          126.6495         0.457745   
     30. A(H   1,C   0,P   2)          119.7637         0.387625   
     31. A(C   0,P   2,C   3)          103.5335         0.455916   
     32. A(C   4,C   3,C  12)          109.5202         0.361075   
     33. A(C   4,C   3,C   8)          109.5304         0.361073   
     34. A(C   8,C   3,C  12)          110.4361         0.361572   
     35. A(P   2,C   3,C  12)          110.7675         0.378140   
     36. A(P   2,C   3,C   8)          110.6363         0.378138   
     37. A(P   2,C   3,C   4)          105.8406         0.377611   
     38. A(C   3,C   4,H   7)          111.4878         0.322658   
     39. A(H   5,C   4,H   6)          107.9168         0.289839   
     40. A(C   3,C   4,H   6)          111.5046         0.322666   
     41. A(C   3,C   4,H   5)          109.9220         0.322424   
     42. A(H   6,C   4,H   7)          107.9336         0.290040   
     43. A(H   5,C   4,H   7)          107.9341         0.289832   
     44. A(C   3,C   8,H  11)          111.5336         0.323159   
     45. A(H   9,C   8,H  10)          107.7861         0.289925   
     46. A(C   3,C   8,H  10)          109.6657         0.322626   
     47. A(C   3,C   8,H   9)          111.8497         0.323417   
     48. A(H  10,C   8,H  11)          107.8737         0.289704   
     49. A(H   9,C   8,H  11)          107.9764         0.290383   
     50. A(H  14,C  12,H  15)          107.8359         0.289922   
     51. A(H  13,C  12,H  15)          107.9956         0.290356   
     52. A(C   3,C  12,H  15)          111.8042         0.323404   
     53. A(C   3,C  12,H  14)          109.6783         0.322639   
     54. A(C   3,C  12,H  13)          111.5402         0.323144   
     55. A(H  13,C  12,H  14)          107.8323         0.289699   
     56. A(C  17,C  16,C  18)          118.7329         0.427545   
     57. A(C   0,C  16,C  18)          122.7667         0.412469   
     58. A(C   0,C  16,C  17)          118.4991         0.413217   
     59. A(C  19,C  17,H  20)          119.5844         0.357259   
     60. A(C  16,C  17,H  20)          120.9361         0.352582   
     61. A(C  16,C  17,C  19)          119.4788         0.434349   
     62. A(C  21,C  18,H  22)          119.5061         0.358446   
     63. A(C  16,C  18,H  22)          121.3945         0.352020   
     64. A(C  16,C  18,C  21)          119.0994         0.435015   
     65. A(C  23,C  19,F  26)          118.3674         0.429676   
     66. A(C  17,C  19,F  26)          118.5790         0.429836   
     67. A(C  17,C  19,C  23)          123.0536         0.440310   
     68. A(C  23,C  21,F  25)          117.7696         0.427969   
     69. A(C  18,C  21,F  25)          118.7662         0.431319   
     70. A(C  18,C  21,C  23)          123.4641         0.439999   
     71. A(C  21,C  23,H  24)          121.7982         0.356022   
     72. A(C  19,C  23,H  24)          122.0312         0.357394   
     73. A(C  19,C  23,C  21)          116.1706         0.438350   
     74. D(C   3,P   2,C   0,H   1)      0.1631         0.007874   
     75. D(C   3,P   2,C   0,C  16)    179.2970         0.007874   
     76. D(C  12,C   3,P   2,C   0)     61.9505         0.002865   
     77. D(C   4,C   3,P   2,C   0)   -179.4254         0.002865   
     78. D(C   8,C   3,P   2,C   0)    -60.8585         0.002865   
     79. D(H   7,C   4,C   3,C   8)    -58.8521         0.010684   
     80. D(H   5,C   4,C   3,C   8)     60.7955         0.010684   
     81. D(H   5,C   4,C   3,P   2)   -179.9062         0.010684   
     82. D(H   7,C   4,C   3,P   2)     60.4462         0.010684   
     83. D(H   6,C   4,C   3,P   2)    -60.2695         0.010684   
     84. D(H   6,C   4,C   3,C  12)     59.1788         0.010684   
     85. D(H   5,C   4,C   3,C  12)    -60.4578         0.010684   
     86. D(H   7,C   4,C   3,C  12)    179.8946         0.010684   
     87. D(H   6,C   4,C   3,C   8)   -179.5679         0.010684   
     88. D(H   9,C   8,C   3,P   2)     65.4067         0.010846   
     89. D(H  11,C   8,C   3,C   4)     60.6635         0.010846   
     90. D(H  11,C   8,C   3,P   2)    -55.6363         0.010846   
     91. D(H  10,C   8,C   3,C  12)     61.9292         0.010846   
     92. D(H  10,C   8,C   3,C   4)    -58.7694         0.010846   
     93. D(H  10,C   8,C   3,P   2)   -175.0692         0.010846   
     94. D(H   9,C   8,C   3,C  12)    -57.5949         0.010846   
     95. D(H  11,C   8,C   3,C  12)   -178.6379         0.010846   
     96. D(H   9,C   8,C   3,C   4)   -178.2935         0.010846   
     97. D(H  15,C  12,C   3,P   2)    -65.1536         0.010847   
     98. D(H  14,C  12,C   3,C   8)    -61.7944         0.010847   
     99. D(H  14,C  12,C   3,C   4)     58.9103         0.010847   
    100. D(H  14,C  12,C   3,P   2)    175.2805         0.010847   
    101. D(H  13,C  12,C   3,C   8)    178.8120         0.010847   
    102. D(H  13,C  12,C   3,C   4)    -60.4833         0.010847   
    103. D(H  15,C  12,C   3,C   4)    178.4762         0.010847   
    104. D(H  13,C  12,C   3,P   2)     55.8869         0.010847   
    105. D(H  15,C  12,C   3,C   8)     57.7714         0.010847   
    106. D(C  18,C  16,C   0,P   2)      2.6961         0.016251   
    107. D(C  18,C  16,C   0,H   1)   -178.1243         0.016251   
    108. D(C  17,C  16,C   0,P   2)   -176.8869         0.016251   
    109. D(C  17,C  16,C   0,H   1)      2.2927         0.016251   
    110. D(H  20,C  17,C  16,C  18)   -179.9955         0.024596   
    111. D(H  20,C  17,C  16,C   0)     -0.3953         0.024596   
    112. D(C  19,C  17,C  16,C  18)     -0.2930         0.024596   
    113. D(C  19,C  17,C  16,C   0)    179.3071         0.024596   
    114. D(H  22,C  18,C  16,C  17)   -179.8500         0.024074   
    115. D(H  22,C  18,C  16,C   0)      0.5679         0.024074   
    116. D(C  21,C  18,C  16,C  17)      0.1805         0.024074   
    117. D(C  21,C  18,C  16,C   0)   -179.4016         0.024074   
    118. D(F  26,C  19,C  17,H  20)      0.0479         0.029005   
    119. D(F  26,C  19,C  17,C  16)   -179.6586         0.029005   
    120. D(C  23,C  19,C  17,H  20)    179.9769         0.029005   
    121. D(C  23,C  19,C  17,C  16)      0.2704         0.029005   
    122. D(F  25,C  21,C  18,H  22)     -0.0409         0.030192   
    123. D(F  25,C  21,C  18,C  16)    179.9292         0.030192   
    124. D(C  23,C  21,C  18,H  22)    179.9945         0.030192   
    125. D(C  23,C  21,C  18,C  16)     -0.0354         0.030192   
    126. D(H  24,C  23,C  21,F  25)      0.0438         0.027515   
    127. D(C  19,C  23,C  21,F  25)   -179.9636         0.027515   
    128. D(C  19,C  23,C  21,C  18)      0.0013         0.027515   
    129. D(H  24,C  23,C  19,F  26)     -0.1989         0.028877   
    130. D(H  24,C  23,C  19,C  17)    179.8719         0.028877   
    131. D(H  24,C  23,C  21,C  18)   -179.9913         0.027515   
    132. D(C  21,C  23,C  19,F  26)    179.8085         0.028877   
    133. D(C  21,C  23,C  19,C  17)     -0.1206         0.028877   
    -----------------------------------------------------------------

Number of atoms                         .... 27
Number of degrees of freedom            .... 133

         *************************************************************
         *                GEOMETRY OPTIMIZATION CYCLE   1            *
         *************************************************************
---------------------------------
CARTESIAN COORDINATES (ANGSTROEM)
---------------------------------
  C      0.004446   -0.793271    0.892481
  H      0.220541   -1.820409    0.613534
  P     -0.710518    0.237422   -0.218253
  C     -0.931329   -0.848042   -1.750889
  C     -1.573934    0.054521   -2.814880
  H     -1.734107   -0.511865   -3.736584
  H     -2.541703    0.437718   -2.483448
  H     -0.936851    0.909664   -3.051959
  C      0.426412   -1.351062   -2.257266
  H      0.903687   -2.021352   -1.541346
  H      0.289213   -1.903441   -3.192443
  H      1.112224   -0.524305   -2.453862
  C     -1.862319   -2.029646   -1.450978
  H     -2.828191   -1.692199   -1.068978
  H     -2.044713   -2.597476   -2.368954
  H     -1.429088   -2.710735   -0.717343
  C      0.408859   -0.461158    2.252225
  C      1.055394   -1.442906    3.016603
  C      0.185738    0.802307    2.824749
  C      1.460363   -1.145324    4.302950
  H      1.245311   -2.427361    2.611361
  C      0.610337    1.038020    4.112129
  H     -0.310792    1.589959    2.275164
  C      1.255108    0.087758    4.891330
  H      1.577108    0.302024    5.899946
  F      0.393579    2.255971    4.655595
  F      2.087999   -2.102790    5.020873

----------------------------
CARTESIAN COORDINATES (A.U.)
----------------------------
  NO LB      ZA    FRAG     MASS         X           Y           Z
   0 C     6.0000    0    12.011    0.008402   -1.499065    1.686545
   1 H     1.0000    0     1.008    0.416763   -3.440075    1.159410
   2 P    15.0000    0    30.974   -1.342684    0.448662   -0.412439
   3 C     6.0000    0    12.011   -1.759957   -1.602568   -3.308701
   4 C     6.0000    0    12.011   -2.974305    0.103030   -5.319351
   5 H     1.0000    0     1.008   -3.276988   -0.967284   -7.061121
   6 H     1.0000    0     1.008   -4.803122    0.827167   -4.693037
   7 H     1.0000    0     1.008   -1.770393    1.719016   -5.767367
   8 C     6.0000    0    12.011    0.805802   -2.553137   -4.265614
   9 H     1.0000    0     1.008    1.707721   -3.819801   -2.912722
  10 H     1.0000    0     1.008    0.546532   -3.596982   -6.032844
  11 H     1.0000    0     1.008    2.101798   -0.990793   -4.637126
  12 C     6.0000    0    12.011   -3.519274   -3.835475   -2.741951
  13 H     1.0000    0     1.008   -5.344507   -3.197793   -2.020075
  14 H     1.0000    0     1.008   -3.863948   -4.908518   -4.476674
  15 H     1.0000    0     1.008   -2.700585   -5.122547   -1.355582
  16 C     6.0000    0    12.011    0.772631   -0.871462    4.256089
  17 C     6.0000    0    12.011    1.994405   -2.726698    5.700554
  18 C     6.0000    0    12.011    0.350993    1.516141    5.338003
  19 C     6.0000    0    12.011    2.759686   -2.164348    8.131398
  20 H     1.0000    0     1.008    2.353297   -4.587048    4.934757
  21 C     6.0000    0    12.011    1.153370    1.961573    7.770798
  22 H     1.0000    0     1.008   -0.587313    3.004587    4.299437
  23 C     6.0000    0    12.011    2.371809    0.165838    9.243273
  24 H     1.0000    0     1.008    2.980303    0.570744   11.149283
  25 F     9.0000    0    18.998    0.743757    4.263168    8.797800
  26 F     9.0000    0    18.998    3.945747   -3.973698    9.488075

--------------------------------
INTERNAL COORDINATES (ANGSTROEM)
--------------------------------
 C      0   0   0     0.000000000000     0.00000000     0.00000000
 H      1   0   0     1.086058099749     0.00000000     0.00000000
 P      1   2   0     1.675479529399   119.76374271     0.00000000
 C      3   1   2     1.891021695745   103.53351654     0.16313542
 C      4   3   1     1.536111285085   105.84057355   180.57460927
 H      5   4   3     1.093612153172   109.92201725   180.09383716
 H      5   4   3     1.092365443419   111.50460880   299.73046946
 H      5   4   3     1.092405958526   111.48783083    60.44622361
 C      4   3   1     1.533918759066   110.63627251   299.14149339
 H      9   4   3     1.090697328265   111.84965014    65.40669971
 H      9   4   3     1.094761691467   109.66567215   184.93081265
 H      9   4   3     1.092023303544   111.53360109   304.36366394
 C      4   3   1     1.533909229791   110.76754830    61.95050366
 H     13   4   3     1.092109361242   111.54017700    55.88690306
 H     13   4   3     1.094704658811   109.67833723   175.28049447
 H     13   4   3     1.090775419110   111.80419264   294.84635771
 C      1   2   3     1.456966956419   113.58177997   180.75822334
 C     17   1   2     1.402180775779   118.49910299     2.29267638
 C     17   1   2     1.404959714030   122.76674097   181.87571689
 C     18  17   1     1.381030199991   119.47878426   179.30712174
 H     18  17   1     1.081407095112   120.93610429   359.60467755
 C     19  17   1     1.375933069076   119.09944706   180.59839470
 H     19  17   1     1.081194306109   121.39445846     0.56790714
 C     20  18  17     1.381596782778   123.05355175     0.27040611
 H     24  20  18     1.080232763970   122.03119990   179.87194467
 F     22  19  17     1.351201767399   118.76623178   179.92921974
 F     20  18  17     1.351326215657   118.57904292   180.34142064

---------------------------
INTERNAL COORDINATES (A.U.)
---------------------------
 C      0   0   0     0.000000000000     0.00000000     0.00000000
 H      1   0   0     2.052352374053     0.00000000     0.00000000
 P      1   2   0     3.166197453555   119.76374271     0.00000000
 C      3   1   2     3.573513118261   103.53351654     0.16313542
 C      4   3   1     2.902829640037   105.84057355   180.57460927
 H      5   4   3     2.066627466222   109.92201725   180.09383716
 H      5   4   3     2.064271526222   111.50460880   299.73046946
 H      5   4   3     2.064348088679   111.48783083    60.44622361
 C      4   3   1     2.898686366319   110.63627251   299.14149339
 H      9   4   3     2.061119245420   111.84965014    65.40669971
 H      9   4   3     2.068799778781   109.66567215   184.93081265
 H      9   4   3     2.063624975559   111.53360109   304.36366394
 C      4   3   1     2.898668358600   110.76754830    61.95050366
 H     13   4   3     2.063787601038   111.54017700    55.88690306
 H     13   4   3     2.068692002681   109.67833723   175.28049447
 H     13   4   3     2.061266815731   111.80419264   294.84635771
 C      1   2   3     2.753268533806   113.58177997   180.75822334
 C     17   1   2     2.649737656472   118.49910299     2.29267638
 C     17   1   2     2.654989088709   122.76674097   181.87571689
 C     18  17   1     2.609768860657   119.47878426   179.30712174
 H     18  17   1     2.043563249041   120.93610429   359.60467755
 C     19  17   1     2.600136679159   119.09944706   180.59839470
 H     19  17   1     2.043161136102   121.39445846     0.56790714
 C     20  18  17     2.610839546957   123.05355175     0.27040611
 H     24  20  18     2.041344084792   122.03119990   179.87194467
 F     22  19  17     2.553401292054   118.76623178   179.92921974
 F     20  18  17     2.553636465180   118.57904292   180.34142064

---------------------
BASIS SET INFORMATION
---------------------
There are 4 groups of distinct atoms

 Group   1 Type C   : 8s4p1d contracted to 4s2p1d pattern {5111/31/1}
 Group   2 Type H   : 4s contracted to 2s pattern {31}
 Group   3 Type P   : 10s7p1d contracted to 4s3p1d pattern {5311/511/1}
 Group   4 Type F   : 8s4p1d contracted to 4s2p1d pattern {5111/31/1}

Atom   0C    basis set group =>   1
Atom   1H    basis set group =>   2
Atom   2P    basis set group =>   3
Atom   3C    basis set group =>   1
Atom   4C    basis set group =>   1
Atom   5H    basis set group =>   2
Atom   6H    basis set group =>   2
Atom   7H    basis set group =>   2
Atom   8C    basis set group =>   1
Atom   9H    basis set group =>   2
Atom  10H    basis set group =>   2
Atom  11H    basis set group =>   2
Atom  12C    basis set group =>   1
Atom  13H    basis set group =>   2
Atom  14H    basis set group =>   2
Atom  15H    basis set group =>   2
Atom  16C    basis set group =>   1
Atom  17C    basis set group =>   1
Atom  18C    basis set group =>   1
Atom  19C    basis set group =>   1
Atom  20H    basis set group =>   2
Atom  21C    basis set group =>   1
Atom  22H    basis set group =>   2
Atom  23C    basis set group =>   1
Atom  24H    basis set group =>   2
Atom  25F    basis set group =>   4
Atom  26F    basis set group =>   4
---------------------------------
AUXILIARY/J BASIS SET INFORMATION
---------------------------------
There are 4 groups of distinct atoms

 Group   1 Type C   : 12s5p4d2f1g contracted to 6s4p3d1f1g pattern {711111/2111/211/2/1}
 Group   2 Type H   : 5s2p1d contracted to 3s1p1d pattern {311/2/1}
 Group   3 Type P   : 14s5p5d2f1g contracted to 8s4p3d1f1g pattern {71111111/2111/311/2/1}
 Group   4 Type F   : 12s5p4d2f1g contracted to 6s4p3d1f1g pattern {711111/2111/211/2/1}

Atom   0C    basis set group =>   1
Atom   1H    basis set group =>   2
Atom   2P    basis set group =>   3
Atom   3C    basis set group =>   1
Atom   4C    basis set group =>   1
Atom   5H    basis set group =>   2
Atom   6H    basis set group =>   2
Atom   7H    basis set group =>   2
Atom   8C    basis set group =>   1
Atom   9H    basis set group =>   2
Atom  10H    basis set group =>   2
Atom  11H    basis set group =>   2
Atom  12C    basis set group =>   1
Atom  13H    basis set group =>   2
Atom  14H    basis set group =>   2
Atom  15H    basis set group =>   2
Atom  16C    basis set group =>   1
Atom  17C    basis set group =>   1
Atom  18C    basis set group =>   1
Atom  19C    basis set group =>   1
Atom  20H    basis set group =>   2
Atom  21C    basis set group =>   1
Atom  22H    basis set group =>   2
Atom  23C    basis set group =>   1
Atom  24H    basis set group =>   2
Atom  25F    basis set group =>   4
Atom  26F    basis set group =>   4
--------------------------------------------------------------------------
A system call failed during shared memory initialization that should
not have.  It is likely that your MPI job will now either abort or
experience performance degradation.

  Local host:  nv68
  System call: open(2) 
  Error:       Permission denied (errno 13)
--------------------------------------------------------------------------


           ************************************************************
           *        Program running with 8 parallel MPI-processes     *
           *              working on a common directory               *
           ************************************************************
------------------------------------------------------------------------------
                           ORCA GTO INTEGRAL CALCULATION
                           -- RI-GTO INTEGRALS CHOSEN --
------------------------------------------------------------------------------

                         BASIS SET STATISTICS AND STARTUP INFO

Gaussian basis set:
 # of primitive gaussian shells          ...  239
 # of primitive gaussian functions       ...  413
 # of contracted shells                  ...  125
 # of contracted basis functions         ...  239
 Highest angular momentum                ...    2
 Maximum contraction depth               ...    5
Auxiliary gaussian basis set:
 # of primitive gaussian shells          ...  443
 # of primitive gaussian functions       ... 1195
 # of contracted shells                  ...  277
 # of contracted aux-basis functions     ...  831
 Highest angular momentum                ...    4
 Maximum contraction depth               ...    7
Ratio of auxiliary to basis functions    ...  3.48
Integral package used                  ... LIBINT
 One Electron integrals                  ... done
 Ordering auxiliary basis shells         ... done
 Integral threshhold             Thresh  ...  2.500e-11
 Primitive cut-off               TCut    ...  2.500e-12
 Pre-screening matrix                    ... done
 Shell pair data                         ... 
 Ordering of the shell pairs             ... done (   0.001 sec) 5679 of 7875 pairs
 Determination of significant pairs      ... done (   0.000 sec)
 Creation of shell pair data             ... done (   0.001 sec)
 Storage of shell pair data              ... done (   0.094 sec)
 Shell pair data done in (   0.096 sec)
 Computing two index integrals           ... done
 Cholesky decomposition of the V-matrix  ... done


Timings:
 Total evaluation time                   ...   1.048 sec (  0.017 min)
 One electron matrix time                ...   0.172 sec (  0.003 min) = 16.4%
 Schwartz matrix evaluation time         ...   0.631 sec (  0.011 min) = 60.3%
 Two index repulsion integral time       ...   0.053 sec (  0.001 min) =  5.0%
 Cholesky decomposition of V             ...   0.055 sec (  0.001 min) =  5.2%
 Three index repulsion integral time     ...   0.000 sec (  0.000 min) =  0.0%

[nv68:25181] 3 more processes have sent help message help-opal-shmem-mmap.txt / sys call fail
[nv68:25181] Set MCA parameter "orte_base_help_aggregate" to 0 to see all help / error messages
--------------------------------------------------------------------------
A system call failed during shared memory initialization that should
not have.  It is likely that your MPI job will now either abort or
experience performance degradation.

  Local host:  nv68
  System call: open(2) 
  Error:       Permission denied (errno 13)
--------------------------------------------------------------------------


           ************************************************************
           *        Program running with 8 parallel MPI-processes     *
           *              working on a common directory               *
           ************************************************************
-------------------------------------------------------------------------------
                                 ORCA SCF
-------------------------------------------------------------------------------

------------
SCF SETTINGS
------------
Hamiltonian:
 Density Functional     Method          .... DFT(GTOs)
 Exchange Functional    Exchange        .... PBE
   PBE kappa parameter   XKappa         ....  1.024500
   PBE mue parameter    XMuePBE         ....  0.123457
 Correlation Functional Correlation     .... PBE
   PBE beta parameter  CBetaPBE         ....  0.030000
 LDA part of GGA corr.  LDAOpt          .... PW91-LDA
 Gradients option       PostSCFGGA      .... off
 Hybrid DFT is turned on
   Fraction HF Exchange ScalHFX         ....  0.420000
   Scaling of DF-GGA-X  ScalDFX         ....  0.580000
   Scaling of DF-GGA-C  ScalDFC         ....  1.000000
   Scaling of DF-LDA-C  ScalLDAC        ....  1.000000
   Perturbative correction              ....  0.000000
   Density functional embedding theory  .... OFF
 RI-approximation to the Coulomb term is turned on
   Number of auxiliary basis functions  .... 831
   RIJ-ON(X) (HFX calculated with O(N)) .... on


General Settings:
 Integral files         IntName         .... C=P_pbe
 Hartree-Fock type      HFTyp           .... RHF
 Total Charge           Charge          ....    0
 Multiplicity           Mult            ....    1
 Number of Electrons    NEL             ....  112
 Basis Dimension        Dim             ....  239
 Nuclear Repulsion      ENuc            ....    946.0111948606 Eh

Convergence Acceleration:
 DIIS                   CNVDIIS         .... on
   Start iteration      DIISMaxIt       ....    12
   Startup error        DIISStart       ....  0.200000
   # of expansion vecs  DIISMaxEq       ....     5
   Bias factor          DIISBfac        ....   1.050
   Max. coefficient     DIISMaxC        ....  10.000
 Newton-Raphson         CNVNR           .... off
 SOSCF                  CNVSOSCF        .... on
   Start iteration      SOSCFMaxIt      ....   150
   Startup grad/error   SOSCFStart      ....  0.003300
 Level Shifting         CNVShift        .... on
   Level shift para.    LevelShift      ....    0.2500
   Turn off err/grad.   ShiftErr        ....    0.0010
 Zerner damping         CNVZerner       .... off
 Static damping         CNVDamp         .... on
   Fraction old density DampFac         ....    0.7000
   Max. Damping (<1)    DampMax         ....    0.9800
   Min. Damping (>=0)   DampMin         ....    0.0000
   Turn off err/grad.   DampErr         ....    0.1000
 Fernandez-Rico         CNVRico         .... off

SCF Procedure:
 Maximum # iterations   MaxIter         ....   250
 SCF integral mode      SCFMode         .... Direct
   Integral package                     .... LIBINT
 Reset frequency        DirectResetFreq ....    20
 Integral Threshold     Thresh          ....  2.500e-11 Eh
 Primitive CutOff       TCut            ....  2.500e-12 Eh

Convergence Tolerance:
 Convergence Check Mode ConvCheckMode   .... Total+1el-Energy
 Convergence forced     ConvForced      .... 0
 Energy Change          TolE            ....  1.000e-08 Eh
 1-El. energy change                    ....  1.000e-05 Eh
 Orbital Gradient       TolG            ....  1.000e-05
 Orbital Rotation angle TolX            ....  1.000e-05
 DIIS Error             TolErr          ....  5.000e-07


Diagonalization of the overlap matrix:
Smallest eigenvalue                        ... 5.018e-04
Time for diagonalization                   ...    0.030 sec
Threshold for overlap eigenvalues          ... 1.000e-08
Number of eigenvalues below threshold      ... 0
Time for construction of square roots      ...    0.017 sec
Total time needed                          ...    0.048 sec

--------------------------------
INITIAL GUESS: MINIMAL BASIS EHT
--------------------------------
The minimal basis has 87 functions
EHT matrix was diagonalized
Basis set overlap was calculated now projecting the orbitals
Using GuessMode=FMatrix for the initial guess
C*T matrix was formed
Effective Fockian was calculated
Effective Fockian was diagonalized
Initial density was built
                      ------------------
                      INITIAL GUESS DONE
                      ------------------
-------------------
DFT GRID GENERATION
-------------------

General Integration Accuracy     IntAcc      ...  5.340
Radial Grid Type                 RadialGrid  ... Gauss-Chebyshev
Angular Grid (max. acc.)         AngularGrid ... Lebedev-590
Angular grid pruning method      GridPruning ... 3 (G Style)
Weight generation scheme         WeightScheme... Becke
Basis function cutoff            BFCut       ...    1.0000e-11
Integration weight cutoff        WCut        ...    1.0000e-14
Grids for H and He will be reduced by one unit

# of grid points (after initial pruning)     ... 376308 (   0.0 sec)
# of grid points (after weights+screening)   ... 334012 (   0.8 sec)
nearest neighbour list constructed           ...    0.0 sec
Grid point re-assignment to atoms done       ...    0.2 sec
[nv68:25220] 3 more processes have sent help message help-opal-shmem-mmap.txt / sys call fail
[nv68:25220] Set MCA parameter "orte_base_help_aggregate" to 0 to see all help / error messages
Grid point division into batches done        ...    5.0 sec
Reduced shell lists constructed in    5.7 sec

Total number of grid points                  ...   334012
Total number of batches                      ...     5233
Average number of points per batch           ...       63
Average number of grid points per atom       ...    12371
Average number of shells per batch           ...    69.55 (55.64%)
Average number of basis functions per batch  ...   139.58 (58.40%)
Average number of large shells per batch     ...    50.25 (72.24%)
Average number of large basis fcns per batch ...   100.43 (71.95%)
Maximum spatial batch extension              ...  10.19,  5.20,  3.92 au
Average spatial batch extension              ...   0.13,  0.12,  0.12 au

Time for grid setup =    6.733 sec


--------------------
CPCM SOLVATION MODEL
--------------------
CPCM parameters:
  Epsilon                                         ...       2.4000
  Refrac                                          ...       1.4970
  Rsolv                                           ...       1.3000
  Surface type                                    ...    GEPOL SES
  Epsilon function type                           ...         CPCM
Radii:
 Radius for C  used is    3.7795 Bohr (=   2.0000 Ang.)
 Radius for H  used is    2.4566 Bohr (=   1.3000 Ang.)
 Radius for P  used is    3.9798 Bohr (=   2.1060 Ang.)
 Radius for F  used is    3.2503 Bohr (=   1.7200 Ang.)
Calculating surface                               ...        done! (  0.1s)
GEPOL surface points                              ...          940
GEPOL Volume                                      ...    1701.3268
GEPOL Surface-area                                ...     892.2168
Calculating surface distance matrix               ...        done! (  0.0s)
Performing Cholesky decomposition & store         ...        done! (  0.1s)
Overall time for CPCM initialization              ...                 0.2s
--------------
SCF ITERATIONS
--------------
ITER       Energy         Delta-E        Max-DP      RMS-DP      [F,P]     Damp
               ***  Starting incremental Fock matrix formation  ***
  0   -964.2965262793   0.000000000000 0.32162770  0.00651642  0.5986439 0.7000
  1   -964.9773353702  -0.680809090865 0.20179476  0.00412365  0.3022289 0.7000
  2   -965.3738272144  -0.396491844182 0.11966667  0.00274928  0.2116433 0.7000
                               ***Turning on DIIS***
  3   -965.6506981296  -0.276870915200 0.09923564  0.00194290  0.1476920 0.7000
  4   -965.8481267677  -0.197428638077 0.07331344  0.00142975  0.1029693 0.7000
  5   -965.9880694754  -0.139942707762 0.16641212  0.00344984  0.0723372 0.0000
  6   -966.3217140653  -0.333644589918 0.01746208  0.00019131  0.0079819 0.0000
  7   -966.3221746421  -0.000460576767 0.01299887  0.00012844  0.0043477 0.0000
                      *** Initiating the SOSCF procedure ***
                           *** Shutting down DIIS ***
                      *** Re-Reading the Fockian *** 
                      *** Removing any level shift *** 
ITER      Energy       Delta-E        Grad      Rot      Max-DP    RMS-DP
  8   -966.32233432  -0.0001596781  0.002670  0.002670  0.007938  0.000080
               *** Restarting incremental Fock matrix formation ***
  9   -966.32239901  -0.0000646911  0.001413  0.006998  0.004856  0.000064
 10   -966.32242487  -0.0000258587  0.000208  0.002418  0.006740  0.000062
 11   -966.32242826  -0.0000033908  0.000195  0.000478  0.001726  0.000017
 12   -966.32243032  -0.0000020564  0.000072  0.000207  0.000584  0.000007
 13   -966.32243034  -0.0000000251  0.000059  0.000113  0.000319  0.000004
 14   -966.32243047  -0.0000001325  0.000010  0.000025  0.000061  0.000001
 15   -966.32243047   0.0000000074  0.000011  0.000011  0.000036  0.000000
                  ***Gradient check signals convergence***
              ***Rediagonalizing the Fockian in SOSCF/NRSCF***

               *****************************************************
               *                     SUCCESS                       *
               *           SCF CONVERGED AFTER  16 CYCLES          *
               *****************************************************


----------------
TOTAL SCF ENERGY
----------------

Total Energy       :         -966.32243047 Eh          -26294.97014 eV

Components:
Nuclear Repulsion  :          946.01119486 Eh           25742.27332 eV
Electronic Energy  :        -1912.33362534 Eh          -52037.24347 eV
One Electron Energy:        -3204.83763384 Eh          -87208.06559 eV
Two Electron Energy:         1292.50400851 Eh           35170.82212 eV
CPCM Dielectric    :           -0.00495551 Eh              -0.13485 eV

Virial components:
Potential Energy   :        -1927.42125542 Eh          -52447.79875 eV
Kinetic Energy     :          961.09882495 Eh           26152.82861 eV
Virial Ratio       :            2.00543503


DFT components:
N(Alpha)           :       55.999984217917 electrons
N(Beta)            :       55.999984217917 electrons
N(Total)           :      111.999968435834 electrons
E(X)               :      -58.313427195199 Eh       
E(C)               :       -5.028421810542 Eh       
E(XC)              :      -63.341849005741 Eh       
DFET-embed. en.    :        0.000000000000 Eh       
CPCM Solvation Model Properties:
Surface-charge          :           -0.02344138
Charge-correction       :            0.00007385 Eh               0.00201 eV
Free-energy (cav+disp)  :            0.00479824 Eh               0.13057 eV
Corrected G(solv)       :         -966.31755839 Eh          -26294.83757 eV

---------------
SCF CONVERGENCE
---------------

  Last Energy change         ...   -7.1718e-09  Tolerance :   1.0000e-08
  Last MAX-Density change    ...    3.3368e-06  Tolerance :   1.0000e-07
  Last RMS-Density change    ...    7.5113e-08  Tolerance :   5.0000e-09
  Last Orbital Gradient      ...    4.7884e-07  Tolerance :   1.0000e-05
  Last Orbital Rotation      ...    1.1082e-06  Tolerance :   1.0000e-05

             **** THE GBW FILE WAS UPDATED (C=P_pbe.gbw) ****
             **** DENSITY FILE WAS UPDATED (C=P_pbe.scfp) ****
             **** ENERGY FILE WAS UPDATED (C=P_pbe.en.tmp) ****
             **** THE GBW FILE WAS UPDATED (C=P_pbe.gbw) ****
             **** DENSITY FILE WAS UPDATED (C=P_pbe.scfp) ****
----------------
ORBITAL ENERGIES
----------------

  NO   OCC          E(Eh)            E(eV) 
   0   2.0000     -77.739824     -2115.4082 
   1   2.0000     -25.118467      -683.5082 
   2   2.0000     -25.117302      -683.4765 
   3   2.0000     -10.552457      -287.1469 
   4   2.0000     -10.552291      -287.1424 
   5   2.0000     -10.489199      -285.4256 
   6   2.0000     -10.472290      -284.9655 
   7   2.0000     -10.470250      -284.9100 
   8   2.0000     -10.466272      -284.8017 
   9   2.0000     -10.463716      -284.7322 
  10   2.0000     -10.461508      -284.6721 
  11   2.0000     -10.432672      -283.8874 
  12   2.0000     -10.432623      -283.8861 
  13   2.0000     -10.431325      -283.8508 
  14   2.0000      -6.813278      -185.3987 
  15   2.0000      -4.903824      -133.4398 
  16   2.0000      -4.903495      -133.4309 
  17   2.0000      -4.901980      -133.3896 
  18   2.0000      -1.357612       -36.9425 
  19   2.0000      -1.356449       -36.9108 
  20   2.0000      -0.987882       -26.8816 
  21   2.0000      -0.915419       -24.9098 
  22   2.0000      -0.891484       -24.2585 
  23   2.0000      -0.857138       -23.3239 
  24   2.0000      -0.804239       -21.8845 
  25   2.0000      -0.773589       -21.0504 
  26   2.0000      -0.772374       -21.0174 
  27   2.0000      -0.719533       -19.5795 
  28   2.0000      -0.712120       -19.3778 
  29   2.0000      -0.661331       -17.9957 
  30   2.0000      -0.620575       -16.8867 
  31   2.0000      -0.608886       -16.5686 
  32   2.0000      -0.580640       -15.8000 
  33   2.0000      -0.578668       -15.7464 
  34   2.0000      -0.560992       -15.2654 
  35   2.0000      -0.555766       -15.1232 
  36   2.0000      -0.542549       -14.7635 
  37   2.0000      -0.519380       -14.1331 
  38   2.0000      -0.512685       -13.9509 
  39   2.0000      -0.507916       -13.8211 
  40   2.0000      -0.501207       -13.6385 
  41   2.0000      -0.486880       -13.2487 
  42   2.0000      -0.462441       -12.5837 
  43   2.0000      -0.450861       -12.2686 
  44   2.0000      -0.447367       -12.1735 
  45   2.0000      -0.445901       -12.1336 
  46   2.0000      -0.436754       -11.8847 
  47   2.0000      -0.434885       -11.8338 
  48   2.0000      -0.422868       -11.5068 
  49   2.0000      -0.394226       -10.7274 
  50   2.0000      -0.389555       -10.6003 
  51   2.0000      -0.371693       -10.1143 
  52   2.0000      -0.350293        -9.5320 
  53   2.0000      -0.301689        -8.2094 
  54   2.0000      -0.300884        -8.1875 
  55   2.0000      -0.267700        -7.2845 
  56   0.0000      -0.065698        -1.7877 
  57   0.0000       0.014787         0.4024 
  58   0.0000       0.041864         1.1392 
  59   0.0000       0.072682         1.9778 
  60   0.0000       0.120930         3.2907 
  61   0.0000       0.127776         3.4769 
  62   0.0000       0.147715         4.0195 
  63   0.0000       0.157266         4.2794 
  64   0.0000       0.183219         4.9856 
  65   0.0000       0.187963         5.1147 
  66   0.0000       0.194526         5.2933 
  67   0.0000       0.196339         5.3427 
  68   0.0000       0.202021         5.4973 
  69   0.0000       0.206057         5.6071 
  70   0.0000       0.214527         5.8376 
  71   0.0000       0.216390         5.8883 
  72   0.0000       0.230025         6.2593 
  73   0.0000       0.232219         6.3190 
  74   0.0000       0.232859         6.3364 
  75   0.0000       0.243379         6.6227 
  76   0.0000       0.256992         6.9931 
  77   0.0000       0.271766         7.3951 
  78   0.0000       0.277688         7.5563 
  79   0.0000       0.281967         7.6727 
  80   0.0000       0.299696         8.1551 
  81   0.0000       0.323352         8.7988 
  82   0.0000       0.331779         9.0282 
  83   0.0000       0.347985         9.4691 
  84   0.0000       0.412604        11.2275 
  85   0.0000       0.427537        11.6339 
  86   0.0000       0.456815        12.4306 
  87   0.0000       0.464727        12.6459 
  88   0.0000       0.486897        13.2491 
  89   0.0000       0.499715        13.5979 
  90   0.0000       0.504973        13.7410 
  91   0.0000       0.522557        14.2195 
  92   0.0000       0.530721        14.4417 
  93   0.0000       0.534877        14.5547 
  94   0.0000       0.540323        14.7029 
  95   0.0000       0.556682        15.1481 
  96   0.0000       0.559304        15.2194 
  97   0.0000       0.566073        15.4036 
  98   0.0000       0.577266        15.7082 
  99   0.0000       0.579915        15.7803 
 100   0.0000       0.596839        16.2408 
 101   0.0000       0.605776        16.4840 
 102   0.0000       0.606940        16.5157 
 103   0.0000       0.608368        16.5545 
 104   0.0000       0.622543        16.9402 
 105   0.0000       0.626136        17.0380 
 106   0.0000       0.656359        17.8604 
 107   0.0000       0.658175        17.9099 
 108   0.0000       0.681371        18.5410 
 109   0.0000       0.691457        18.8155 
 110   0.0000       0.703217        19.1355 
 111   0.0000       0.710353        19.3297 
 112   0.0000       0.735708        20.0196 
 113   0.0000       0.741307        20.1720 
 114   0.0000       0.749606        20.3978 
 115   0.0000       0.757869        20.6227 
 116   0.0000       0.767733        20.8911 
 117   0.0000       0.786138        21.3919 
 118   0.0000       0.797740        21.7076 
 119   0.0000       0.847526        23.0624 
 120   0.0000       0.865189        23.5430 
 121   0.0000       0.899330        24.4720 
 122   0.0000       0.900135        24.4939 
 123   0.0000       0.919443        25.0193 
 124   0.0000       0.929875        25.3032 
 125   0.0000       0.957197        26.0467 
 126   0.0000       0.968086        26.3430 
 127   0.0000       0.981664        26.7124 
 128   0.0000       0.995621        27.0922 
 129   0.0000       1.015287        27.6274 
 130   0.0000       1.024724        27.8842 
 131   0.0000       1.025921        27.9167 
 132   0.0000       1.035578        28.1795 
 133   0.0000       1.044184        28.4137 
 134   0.0000       1.045431        28.4476 
 135   0.0000       1.053506        28.6674 
 136   0.0000       1.064718        28.9725 
 137   0.0000       1.071978        29.1700 
 138   0.0000       1.085675        29.5427 
 139   0.0000       1.096147        29.8277 
 140   0.0000       1.097471        29.8637 
 141   0.0000       1.108592        30.1663 
 142   0.0000       1.127490        30.6805 
 143   0.0000       1.147466        31.2241 
 144   0.0000       1.163992        31.6738 
 145   0.0000       1.178455        32.0674 
 146   0.0000       1.181611        32.1533 
 147   0.0000       1.197262        32.5791 
 148   0.0000       1.203411        32.7465 
 149   0.0000       1.214705        33.0538 
 150   0.0000       1.226907        33.3858 
 151   0.0000       1.256764        34.1983 
 152   0.0000       1.264866        34.4188 
 153   0.0000       1.286827        35.0163 
 154   0.0000       1.289568        35.0909 
 155   0.0000       1.298253        35.3273 
 156   0.0000       1.329760        36.1846 
 157   0.0000       1.353655        36.8348 
 158   0.0000       1.364450        37.1286 
 159   0.0000       1.380941        37.5773 
 160   0.0000       1.403780        38.1988 
 161   0.0000       1.407756        38.3070 
 162   0.0000       1.432356        38.9764 
 163   0.0000       1.449239        39.4358 
 164   0.0000       1.482029        40.3281 
 165   0.0000       1.504644        40.9434 
 166   0.0000       1.514862        41.2215 
 167   0.0000       1.516858        41.2758 
 168   0.0000       1.522652        41.4335 
 169   0.0000       1.524288        41.4780 
 170   0.0000       1.547647        42.1136 
 171   0.0000       1.717903        46.7465 
 172   0.0000       1.757091        47.8129 
 173   0.0000       1.788188        48.6591 
 174   0.0000       1.830959        49.8229 
 175   0.0000       1.836469        49.9729 
 176   0.0000       1.848319        50.2953 
 177   0.0000       1.884232        51.2726 
 178   0.0000       1.896683        51.6114 
 179   0.0000       1.898984        51.6740 
 180   0.0000       1.914071        52.0845 
 181   0.0000       1.935740        52.6742 
 182   0.0000       1.938876        52.7595 
 183   0.0000       1.961644        53.3790 
 184   0.0000       1.981066        53.9076 
 185   0.0000       1.994364        54.2694 
 186   0.0000       2.003634        54.5216 
 187   0.0000       2.013457        54.7890 
 188   0.0000       2.064187        56.1694 
 189   0.0000       2.075067        56.4655 
 190   0.0000       2.134763        58.0899 
 191   0.0000       2.135545        58.1111 
 192   0.0000       2.137826        58.1732 
 193   0.0000       2.143990        58.3409 
 194   0.0000       2.168374        59.0045 
 195   0.0000       2.222679        60.4822 
 196   0.0000       2.237058        60.8735 
 197   0.0000       2.307345        62.7861 
 198   0.0000       2.314051        62.9685 
 199   0.0000       2.321092        63.1601 
 200   0.0000       2.328900        63.3726 
 201   0.0000       2.340321        63.6834 
 202   0.0000       2.354669        64.0738 
 203   0.0000       2.361806        64.2680 
 204   0.0000       2.370645        64.5085 
 205   0.0000       2.385105        64.9020 
 206   0.0000       2.391564        65.0778 
 207   0.0000       2.489280        67.7368 
 208   0.0000       2.525935        68.7342 
 209   0.0000       2.538590        69.0785 
 210   0.0000       2.583112        70.2900 
 211   0.0000       2.597348        70.6774 
 212   0.0000       2.607233        70.9464 
 213   0.0000       2.623452        71.3878 
 214   0.0000       2.713367        73.8345 
 215   0.0000       2.722471        74.0822 
 216   0.0000       2.723915        74.1215 
 217   0.0000       2.740323        74.5680 
 218   0.0000       2.751802        74.8803 
 219   0.0000       2.855900        77.7130 
 220   0.0000       2.975390        80.9645 
 221   0.0000       3.032402        82.5159 
 222   0.0000       3.050519        83.0088 
 223   0.0000       3.147608        85.6508 
 224   0.0000       3.210366        87.3585 
 225   0.0000       3.461167        94.1831 
 226   0.0000      13.258458       360.7810 
 227   0.0000      13.578292       369.4841 
 228   0.0000      13.654906       371.5689 
 229   0.0000      13.742552       373.9539 
 230   0.0000      13.861798       377.1987 
 231   0.0000      13.872877       377.5002 
 232   0.0000      13.918562       378.7433 
 233   0.0000      14.080441       383.1483 
 234   0.0000      14.159343       385.2953 
 235   0.0000      14.202617       386.4729 
 236   0.0000      14.488314       394.2471 
 237   0.0000      32.868717       894.4033 
 238   0.0000      32.937193       896.2666 

                    ********************************
                    * MULLIKEN POPULATION ANALYSIS *
                    ********************************

-----------------------
MULLIKEN ATOMIC CHARGES
-----------------------
   0 C :   -0.513767
   1 H :    0.258952
   2 P :    0.308810
   3 C :   -0.304471
   4 C :   -0.632195
   5 H :    0.230372
   6 H :    0.232414
   7 H :    0.232411
   8 C :   -0.620066
   9 H :    0.227008
  10 H :    0.226161
  11 H :    0.231938
  12 C :   -0.619865
  13 H :    0.231690
  14 H :    0.225975
  15 H :    0.227339
  16 C :    0.223475
  17 C :   -0.473592
  18 C :   -0.489177
  19 C :    0.567600
  20 H :    0.267000
  21 C :    0.579073
  22 H :    0.272032
  23 C :   -0.556477
  24 H :    0.292957
  25 F :   -0.313057
  26 F :   -0.312540
Sum of atomic charges:   -0.0000000

--------------------------------
MULLIKEN REDUCED ORBITAL CHARGES
--------------------------------
  0 C s       :     3.368016  s :     3.368016
      pz      :     0.962721  p :     3.114362
      px      :     1.034933
      py      :     1.116708
      dz2     :     0.009729  d :     0.031389
      dxz     :     0.005517
      dyz     :     0.007139
      dx2y2   :     0.006108
      dxy     :     0.002897
  1 H s       :     0.741048  s :     0.741048
  2 P s       :     5.772862  s :     5.772862
      pz      :     2.755467  p :     8.787895
      px      :     2.921132
      py      :     3.111297
      dz2     :     0.022067  d :     0.130432
      dxz     :     0.021269
      dyz     :     0.053384
      dx2y2   :     0.015398
      dxy     :     0.018314
  3 C s       :     3.305731  s :     3.305731
      pz      :     1.005227  p :     2.950475
      px      :     0.968596
      py      :     0.976653
      dz2     :     0.007829  d :     0.048265
      dxz     :     0.008307
      dyz     :     0.011673
      dx2y2   :     0.008731
      dxy     :     0.011725
  4 C s       :     3.381660  s :     3.381660
      pz      :     1.039275  p :     3.213420
      px      :     1.100856
      py      :     1.073288
      dz2     :     0.007996  d :     0.037115
      dxz     :     0.004895
      dyz     :     0.009416
      dx2y2   :     0.004897
      dxy     :     0.009910
  5 H s       :     0.769628  s :     0.769628
  6 H s       :     0.767586  s :     0.767586
  7 H s       :     0.767589  s :     0.767589
  8 C s       :     3.377779  s :     3.377779
      pz      :     1.114888  p :     3.205066
      px      :     0.976313
      py      :     1.113864
      dz2     :     0.006318  d :     0.037221
      dxz     :     0.005691
      dyz     :     0.010370
      dx2y2   :     0.003817
      dxy     :     0.011025
  9 H s       :     0.772992  s :     0.772992
 10 H s       :     0.773839  s :     0.773839
 11 H s       :     0.768062  s :     0.768062
 12 C s       :     3.377833  s :     3.377833
      pz      :     1.133707  p :     3.204817
      px      :     1.063334
      py      :     1.007777
      dz2     :     0.004902  d :     0.037214
      dxz     :     0.005802
      dyz     :     0.012096
      dx2y2   :     0.006487
      dxy     :     0.007927
 13 H s       :     0.768310  s :     0.768310
 14 H s       :     0.774025  s :     0.774025
 15 H s       :     0.772661  s :     0.772661
 16 C s       :     3.173569  s :     3.173569
      pz      :     0.805403  p :     2.554380
      px      :     0.922394
      py      :     0.826583
      dz2     :     0.011092  d :     0.048576
      dxz     :     0.007621
      dyz     :     0.013901
      dx2y2   :     0.007899
      dxy     :     0.008063
 17 C s       :     3.324554  s :     3.324554
      pz      :     0.992161  p :     3.111596
      px      :     1.037155
      py      :     1.082281
      dz2     :     0.010295  d :     0.037442
      dxz     :     0.006507
      dyz     :     0.009215
      dx2y2   :     0.006778
      dxy     :     0.004647
 18 C s       :     3.345903  s :     3.345903
      pz      :     1.008315  p :     3.105857
      px      :     1.062090
      py      :     1.035452
      dz2     :     0.009503  d :     0.037417
      dxz     :     0.006396
      dyz     :     0.009982
      dx2y2   :     0.005140
      dxy     :     0.006396
 19 C s       :     2.994523  s :     2.994523
      pz      :     0.761447  p :     2.356027
      px      :     0.880454
      py      :     0.714126
      dz2     :     0.017014  d :     0.081850
      dxz     :     0.012582
      dyz     :     0.023959
      dx2y2   :     0.013011
      dxy     :     0.015283
 20 H s       :     0.733000  s :     0.733000
 21 C s       :     2.992315  s :     2.992315
      pz      :     0.776207  p :     2.346605
      px      :     0.910705
      py      :     0.659693
      dz2     :     0.016933  d :     0.082007
      dxz     :     0.010361
      dyz     :     0.024559
      dx2y2   :     0.016150
      dxy     :     0.014006
 22 H s       :     0.727968  s :     0.727968
 23 C s       :     3.347450  s :     3.347450
      pz      :     1.105432  p :     3.172546
      px      :     1.071121
      py      :     0.995992
      dz2     :     0.008149  d :     0.036481
      dxz     :     0.005164
      dyz     :     0.010050
      dx2y2   :     0.006531
      dxy     :     0.006586
 24 H s       :     0.707043  s :     0.707043
 25 F s       :     3.900210  s :     3.900210
      pz      :     1.876245  p :     5.383964
      px      :     1.913188
      py      :     1.594531
      dz2     :     0.004180  d :     0.028883
      dxz     :     0.001690
      dyz     :     0.008611
      dx2y2   :     0.007460
      dxy     :     0.006942
 26 F s       :     3.899977  s :     3.899977
      pz      :     1.823761  p :     5.383737
      px      :     1.830674
      py      :     1.729303
      dz2     :     0.005122  d :     0.028826
      dxz     :     0.004454
      dyz     :     0.006941
      dx2y2   :     0.006005
      dxy     :     0.006304


                     *******************************
                     * LOEWDIN POPULATION ANALYSIS *
                     *******************************

----------------------
LOEWDIN ATOMIC CHARGES
----------------------
   0 C :   -0.309316
   1 H :    0.146155
   2 P :    0.319905
   3 C :   -0.220155
   4 C :   -0.360743
   5 H :    0.131910
   6 H :    0.132479
   7 H :    0.132498
   8 C :   -0.353479
   9 H :    0.128502
  10 H :    0.131288
  11 H :    0.132976
  12 C :   -0.353515
  13 H :    0.132894
  14 H :    0.131277
  15 H :    0.128742
  16 C :   -0.040124
  17 C :   -0.168944
  18 C :   -0.166935
  19 C :    0.163108
  20 H :    0.162440
  21 C :    0.165265
  22 H :    0.165337
  23 C :   -0.187415
  24 H :    0.175815
  25 F :   -0.159842
  26 F :   -0.160121

-------------------------------
LOEWDIN REDUCED ORBITAL CHARGES
-------------------------------
  0 C s       :     2.965355  s :     2.965355
      pz      :     1.086776  p :     3.275879
      px      :     1.051794
      py      :     1.137309
      dz2     :     0.021748  d :     0.068082
      dxz     :     0.012009
      dyz     :     0.018104
      dx2y2   :     0.010431
      dxy     :     0.005789
  1 H s       :     0.853845  s :     0.853845
  2 P s       :     5.451345  s :     5.451345
      pz      :     2.838392  p :     9.043892
      px      :     2.933838
      py      :     3.271662
      dz2     :     0.034560  d :     0.184858
      dxz     :     0.032371
      dyz     :     0.074738
      dx2y2   :     0.018898
      dxy     :     0.024291
  3 C s       :     2.893492  s :     2.893492
      pz      :     1.070367  p :     3.218422
      px      :     1.069793
      py      :     1.078263
      dz2     :     0.016707  d :     0.108241
      dxz     :     0.018056
      dyz     :     0.027228
      dx2y2   :     0.019124
      dxy     :     0.027127
  4 C s       :     2.958438  s :     2.958438
      pz      :     1.102199  p :     3.332570
      px      :     1.120727
      py      :     1.109644
      dz2     :     0.015248  d :     0.069736
      dxz     :     0.009843
      dyz     :     0.018131
      dx2y2   :     0.008902
      dxy     :     0.017612
  5 H s       :     0.868090  s :     0.868090
  6 H s       :     0.867521  s :     0.867521
  7 H s       :     0.867502  s :     0.867502
  8 C s       :     2.956448  s :     2.956448
      pz      :     1.127625  p :     3.326758
      px      :     1.073511
      py      :     1.125622
      dz2     :     0.011307  d :     0.070274
      dxz     :     0.011848
      dyz     :     0.017618
      dx2y2   :     0.008629
      dxy     :     0.020872
  9 H s       :     0.871498  s :     0.871498
 10 H s       :     0.868712  s :     0.868712
 11 H s       :     0.867024  s :     0.867024
 12 C s       :     2.956488  s :     2.956488
      pz      :     1.134510  p :     3.326763
      px      :     1.106755
      py      :     1.085498
      dz2     :     0.008816  d :     0.070264
      dxz     :     0.010271
      dyz     :     0.021655
      dx2y2   :     0.012945
      dxy     :     0.016577
 13 H s       :     0.867106  s :     0.867106
 14 H s       :     0.868723  s :     0.868723
 15 H s       :     0.871258  s :     0.871258
 16 C s       :     2.840715  s :     2.840715
      pz      :     1.044547  p :     3.082177
      px      :     0.967739
      py      :     1.069891
      dz2     :     0.027948  d :     0.117232
      dxz     :     0.016487
      dyz     :     0.035760
      dx2y2   :     0.018442
      dxy     :     0.018595
 17 C s       :     2.892597  s :     2.892597
      pz      :     1.058012  p :     3.192056
      px      :     1.050048
      py      :     1.083997
      dz2     :     0.024838  d :     0.084291
      dxz     :     0.014681
      dyz     :     0.023086
      dx2y2   :     0.012409
      dxy     :     0.009278
 18 C s       :     2.890656  s :     2.890656
      pz      :     1.063161  p :     3.192359
      px      :     1.052840
      py      :     1.076358
      dz2     :     0.023155  d :     0.083920
      dxz     :     0.013057
      dyz     :     0.024777
      dx2y2   :     0.010799
      dxy     :     0.012133
 19 C s       :     2.813841  s :     2.813841
      pz      :     0.993553  p :     2.824465
      px      :     0.907301
      py      :     0.923612
      dz2     :     0.043820  d :     0.198586
      dxz     :     0.030206
      dyz     :     0.056423
      dx2y2   :     0.032369
      dxy     :     0.035768
 20 H s       :     0.837560  s :     0.837560
 21 C s       :     2.813703  s :     2.813703
      pz      :     1.032068  p :     2.822334
      px      :     0.962922
      py      :     0.827343
      dz2     :     0.041932  d :     0.198698
      dxz     :     0.022899
      dyz     :     0.061537
      dx2y2   :     0.038266
      dxy     :     0.034064
 22 H s       :     0.834663  s :     0.834663
 23 C s       :     2.899022  s :     2.899022
      pz      :     1.089542  p :     3.206644
      px      :     1.060214
      py      :     1.056889
      dz2     :     0.016647  d :     0.081749
      dxz     :     0.009381
      dyz     :     0.025752
      dx2y2   :     0.015188
      dxy     :     0.014780
 24 H s       :     0.824185  s :     0.824185
 25 F s       :     3.703433  s :     3.703433
      pz      :     1.861350  p :     5.374896
      px      :     1.899422
      py      :     1.614124
      dz2     :     0.012386  d :     0.081513
      dxz     :     0.004971
      dyz     :     0.023561
      dx2y2   :     0.020083
      dxy     :     0.020513
 26 F s       :     3.703476  s :     3.703476
      pz      :     1.815730  p :     5.375136
      px      :     1.827059
      py      :     1.732347
      dz2     :     0.015427  d :     0.081510
      dxz     :     0.012342
      dyz     :     0.018721
      dx2y2   :     0.017722
      dxy     :     0.017297


                      *****************************
                      * MAYER POPULATION ANALYSIS *
                      *****************************

  NA   - Mulliken gross atomic population
  ZA   - Total nuclear charge
  QA   - Mulliken gross atomic charge
  VA   - Mayer's total valence
  BVA  - Mayer's bonded valence
  FA   - Mayer's free valence

  ATOM       NA         ZA         QA         VA         BVA        FA
  0 C      6.5138     6.0000    -0.5138     3.7051     3.7051    -0.0000
  1 H      0.7410     1.0000     0.2590     0.9041     0.9041     0.0000
  2 P     14.6912    15.0000     0.3088     2.8332     2.8332    -0.0000
  3 C      6.3045     6.0000    -0.3045     3.7562     3.7562    -0.0000
  4 C      6.6322     6.0000    -0.6322     3.6636     3.6636    -0.0000
  5 H      0.7696     1.0000     0.2304     0.9124     0.9124    -0.0000
  6 H      0.7676     1.0000     0.2324     0.9094     0.9094    -0.0000
  7 H      0.7676     1.0000     0.2324     0.9094     0.9094    -0.0000
  8 C      6.6201     6.0000    -0.6201     3.6740     3.6740    -0.0000
  9 H      0.7730     1.0000     0.2270     0.9135     0.9135    -0.0000
 10 H      0.7738     1.0000     0.2262     0.9118     0.9118    -0.0000
 11 H      0.7681     1.0000     0.2319     0.9110     0.9110    -0.0000
 12 C      6.6199     6.0000    -0.6199     3.6741     3.6741    -0.0000
 13 H      0.7683     1.0000     0.2317     0.9110     0.9110    -0.0000
 14 H      0.7740     1.0000     0.2260     0.9118     0.9118     0.0000
 15 H      0.7727     1.0000     0.2273     0.9133     0.9133    -0.0000
 16 C      5.7765     6.0000     0.2235     3.6428     3.6428    -0.0000
 17 C      6.4736     6.0000    -0.4736     3.7794     3.7794    -0.0000
 18 C      6.4892     6.0000    -0.4892     3.7652     3.7652    -0.0000
 19 C      5.4324     6.0000     0.5676     3.7545     3.7545    -0.0000
 20 H      0.7330     1.0000     0.2670     0.9012     0.9012     0.0000
 21 C      5.4209     6.0000     0.5791     3.7483     3.7483    -0.0000
 22 H      0.7280     1.0000     0.2720     0.9022     0.9022    -0.0000
 23 C      6.5565     6.0000    -0.5565     3.7574     3.7574    -0.0000
 24 H      0.7070     1.0000     0.2930     0.8897     0.8897     0.0000
 25 F      9.3131     9.0000    -0.3131     1.1094     1.1094    -0.0000
 26 F      9.3125     9.0000    -0.3125     1.1101     1.1101    -0.0000

  Mayer bond orders larger than 0.100000
B(  0-C ,  1-H ) :   0.8822 B(  0-C ,  2-P ) :   1.7564 B(  0-C , 16-C ) :   1.0443 
B(  2-P ,  3-C ) :   0.9191 B(  3-C ,  4-C ) :   0.9645 B(  3-C ,  8-C ) :   0.9614 
B(  3-C , 12-C ) :   0.9614 B(  4-C ,  5-H ) :   0.9206 B(  4-C ,  6-H ) :   0.9223 
B(  4-C ,  7-H ) :   0.9223 B(  8-C ,  9-H ) :   0.9218 B(  8-C , 10-H ) :   0.9175 
B(  8-C , 11-H ) :   0.9226 B( 12-C , 13-H ) :   0.9228 B( 12-C , 14-H ) :   0.9174 
B( 12-C , 15-H ) :   0.9221 B( 16-C , 17-C ) :   1.3127 B( 16-C , 18-C ) :   1.2988 
B( 17-C , 19-C ) :   1.4037 B( 17-C , 20-H ) :   0.8974 B( 18-C , 21-C ) :   1.4333 
B( 18-C , 22-H ) :   0.8940 B( 19-C , 23-C ) :   1.3626 B( 19-C , 26-F ) :   0.9560 
B( 21-C , 23-C ) :   1.3291 B( 21-C , 25-F ) :   0.9534 B( 23-C , 24-H ) :   0.8852 


-------
TIMINGS
-------

Total SCF time: 0 days 0 hours 1 min 8 sec 

Total time                  ....      68.526 sec
Sum of individual times     ....      66.711 sec  ( 97.4%)

Fock matrix formation       ....      59.487 sec  ( 86.8%)
  XC integration            ....      11.650 sec  ( 19.6% of F)
    Basis function eval.    ....       3.920 sec  ( 33.7% of XC)
    Density eval.           ....       2.610 sec  ( 22.4% of XC)
    XC-Functional eval.     ....       0.933 sec  (  8.0% of XC)
    XC-Potential eval.      ....       2.221 sec  ( 19.1% of XC)
Diagonalization             ....       0.198 sec  (  0.3%)
Density matrix formation    ....       0.023 sec  (  0.0%)
Population analysis         ....       0.015 sec  (  0.0%)
Initial guess               ....       0.062 sec  (  0.1%)
Orbital Transformation      ....       0.000 sec  (  0.0%)
Orbital Orthonormalization  ....       0.000 sec  (  0.0%)
DIIS solution               ....       0.064 sec  (  0.1%)
SOSCF solution              ....       0.130 sec  (  0.2%)
Grid generation             ....       6.733 sec  (  9.8%)


-------------------------------------------------------------------------------
                          DFT DISPERSION CORRECTION                            
                                                                               
                              DFTD3 V3.1  Rev 1                                
                          USING Becke-Johnson damping                          
-------------------------------------------------------------------------------
The PBEh-3c composite method is recognized
Using three-body term ABC
Active option DFTDOPT                   ...         4   

molecular C6(AA) [au] = 8521.175956 


            DFT-D V3
 parameters
 s6 scaling factor         :     1.0000 
 a1 scaling factor         :     0.4860 
 s8 scaling factor         :     0.0000 
 a2 scaling factor         :     4.5000 
 Damping factor alpha9(ATM):    16.0000 
 ad hoc parameters k1-k3   :    16.0000     1.3333    -4.0000 

 Edisp/kcal,au: -10.912481779085  -0.017390144796 
 E6   /kcal   : -10.925412230 
 E8   /kcal   :  -0.000000000 
 E6(ABC)      :   0.012930451 
 % E8         :   0.000000000 
 % E6(ABC)    :  -0.118492302 

-------------------------   ----------------
Dispersion correction           -0.017390145
-------------------------   ----------------

------------------   -----------------
gCP correction             0.037574580
------------------   -----------------

-------------------------   --------------------
FINAL SINGLE POINT ENERGY      -966.302246038977
-------------------------   --------------------

--------------------------------------------------------------------------
A system call failed during shared memory initialization that should
not have.  It is likely that your MPI job will now either abort or
experience performance degradation.

  Local host:  nv68
  System call: open(2) 
  Error:       Permission denied (errno 13)
--------------------------------------------------------------------------


           ************************************************************
           *        Program running with 8 parallel MPI-processes     *
           *              working on a common directory               *
           ************************************************************
------------------------------------------------------------------------------
                         ORCA SCF GRADIENT CALCULATION
------------------------------------------------------------------------------

Gradient of the Kohn-Sham DFT energy:
Kohn-Sham wavefunction type      ... RKS
Hartree-Fock exchange scaling    ...    0.420
Number of operators              ...    1
Number of atoms                  ...   27
Basis set dimensions             ...  239
Integral neglect threshold       ... 2.5e-11
Integral primitive cutoff        ... 2.5e-12

Nuclear repulsion gradient       ... done
One Electron Gradient            ... done
Pre-screening matrix             ... done
Starting the two electron gradient:
Will do only exchange terms
[nv68:25262] 3 more processes have sent help message help-opal-shmem-mmap.txt / sys call fail
[nv68:25262] Set MCA parameter "orte_base_help_aggregate" to 0 to see all help / error messages
Two electron gradient done
RI-J gradient                    ... done
Exchange-correlation gradient    ... done
Dispersion correction            ... done
gCP correction                   ... done

------------------
CARTESIAN GRADIENT
------------------

   1   C   :    0.001011204   -0.001534275    0.002059821
   2   H   :   -0.000042288    0.000664107    0.000330487
   3   P   :   -0.001071169    0.003289882   -0.000466190
   4   C   :   -0.000063286    0.000115884   -0.000264292
   5   C   :   -0.001487918    0.001858115   -0.002501616
   6   H   :    0.000016007   -0.000853322   -0.000551964
   7   H   :   -0.000468780   -0.000000175    0.000726221
   8   H   :    0.000780714    0.000353710    0.000322770
   9   C   :    0.003218213   -0.001391777   -0.000562856
  10   H   :   -0.000296731   -0.000121216    0.000619882
  11   H   :   -0.000522006   -0.000439268   -0.000869730
  12   H   :   -0.000006620    0.000914387    0.000127887
  13   C   :   -0.001764756   -0.002947350    0.000902832
  14   H   :   -0.000436271    0.000796655    0.000195396
  15   H   :    0.000005092   -0.000243407   -0.001044377
  16   H   :    0.000636671    0.000153447    0.000283937
  17   C   :   -0.001222506   -0.001423140   -0.004082027
  18   C   :    0.001116269   -0.003178587    0.000183912
  19   C   :   -0.001250316    0.003352478   -0.000127052
  20   C   :   -0.004477278    0.006027549   -0.005896772
  21   H   :    0.000145916    0.000285118    0.000675417
  22   C   :    0.000692630   -0.007965210   -0.005320628
  23   H   :    0.000487198   -0.000295429    0.000925442
  24   C   :    0.001460683    0.000616359    0.004292842
  25   H   :   -0.000249130   -0.000102749   -0.000589431
  26   F   :   -0.001672546    0.010211047    0.004695203
  27   F   :    0.005461004   -0.008142833    0.005934886

Difference to translation invariance:
           :   -0.0000000000   -0.0000000000    0.0000000000

Norm of the cartesian gradient     ...    0.0240131158
RMS gradient                       ...    0.0026681240
MAX gradient                       ...    0.0102110469

-------
TIMINGS
-------

Total SCF gradient time            ...       14.359 sec

One electron gradient       ....       0.087 sec  (  0.6%)
Prescreening matrices       ....       0.039 sec  (  0.3%)
Two electron gradient       ....       7.204 sec  ( 50.2%)
RI-J Coulomb gradient       ....       0.851 sec  (  5.9%)
XC gradient                 ....       4.880 sec  ( 34.0%)
CPCM gradient               ....       0.803 sec  (  5.6%)
   A-Matrix (El+Nuc)        ....       0.054 sec  (  0.4%)
   Potential                ....       0.749 sec  (  5.2%)
------------------------------------------------------------------------------
                         ORCA GEOMETRY RELAXATION STEP
------------------------------------------------------------------------------

Reading the OPT-File                    .... done
Getting information on internals        .... done
Copying old internal coords+grads       .... done
Making the new internal coordinates     .... (new redundants).... done
Validating the new internal coordinates .... (new redundants).... done
Calculating the B-matrix                .... done
Calculating the G,G- and P matrices     .... done
Transforming gradient to internals      .... done
Projecting the internal gradient        .... done
Number of atoms                         ....  27
Number of internal coordinates          .... 133
[...]
     66       0.000001   0.000183   0.000040  -0.000095   0.000343  -0.006264
     67       0.000013  -0.000297   0.000002   0.000070  -0.000686   0.011091
     68       0.000012   0.000242  -0.000006  -0.000033   0.000358  -0.007533
     69      -0.000000   0.000001   0.000000  -0.000002   0.000007  -0.000015
     70      -0.000004  -0.000001  -0.000000   0.000001  -0.000009   0.000068
     71      -0.000004   0.000002  -0.000001   0.000001   0.000011   0.000017
     72       0.000060  -0.000063   0.000010   0.000005  -0.000022  -0.000181
     73       0.000048  -0.000046   0.000005   0.000002  -0.000032   0.000004
     74       0.000201  -0.000212   0.000013  -0.000009  -0.000089  -0.000492
     75      -0.000001   0.000001  -0.000000  -0.000002   0.000000  -0.000004
     76       0.000013  -0.000011  -0.000000  -0.000001   0.000009  -0.000022
     77       0.000008  -0.000007   0.000001  -0.000000   0.000008  -0.000029
     78       0.000006  -0.000007   0.000001   0.000000   0.000002  -0.000015
     79      -0.000009   0.000011  -0.000000   0.000001  -0.000002   0.000019
     80       0.000009  -0.000011  -0.000000  -0.000000   0.000005  -0.000028
                  78         79         80    
      0      -0.000070   0.000327   0.000053
      1       0.000681  -0.001584  -0.000103
      2       0.000394  -0.000467   0.000057
      3       0.002499  -0.003250  -0.000170
      4      -0.013747   0.019012   0.000916
      5      -0.004987   0.007378   0.000312
      6      -0.000012  -0.000000  -0.000005
      7      -0.000006   0.000036   0.000008
      8      -0.000034   0.000030  -0.000007
      9      -0.000029   0.000018  -0.000002
     10       0.000087  -0.000061  -0.000001
     11      -0.000006  -0.000004  -0.000006
     12      -0.000000  -0.000010  -0.000006
     13      -0.000023   0.000017  -0.000001
     14      -0.000026  -0.000008  -0.000014
     15       0.000008   0.000099   0.000044
     16       0.000122   0.000115   0.000104
     17       0.000126   0.000373   0.000214
     18      -0.000105   0.000091   0.000041
     19       0.000032  -0.000034  -0.000017
     20       0.000030  -0.000048  -0.000030
     21       0.000049  -0.000061  -0.000018
     22       0.000067  -0.000078  -0.000025
     23      -0.000027   0.000007  -0.000007
     24       0.000001   0.000020   0.000007
     25       0.000027  -0.000036  -0.000019
     26      -0.000022   0.000010  -0.000002
     27       0.000151  -0.000230  -0.000052
     28      -0.000223   0.000351   0.000063
     29       0.000269  -0.000346  -0.000091
     30      -0.000016  -0.000027  -0.000000
     31       0.000082   0.000141   0.000149
     32       0.000170   0.000223   0.000233
     33      -0.000145   0.000038   0.000056
     34      -0.000145   0.000024   0.000048
     35       0.000017   0.000001  -0.000038
     36      -0.000024   0.000016   0.000003
     37       0.000015  -0.000040  -0.000019
     38      -0.000012   0.000011  -0.000002
     39       0.000146  -0.000046  -0.000069
     40      -0.000032   0.000005  -0.000003
     41      -0.000089   0.000036   0.000010
     42       0.000074   0.000081   0.000062
     43       0.000113   0.000176   0.000168
     44       0.000143   0.000189   0.000206
     45       0.000173  -0.000246  -0.000050
     46      -0.000198   0.000345   0.000056
     47       0.000242  -0.000342  -0.000083
     48      -0.000593  -0.001491  -0.000017
     49       0.003235   0.002260   0.000033
     50       0.001149  -0.002115  -0.000018
     51       0.000090   0.013164   0.000355
     52      -0.001403  -0.080505  -0.001358
     53      -0.000947  -0.032821  -0.000192
     54       0.037638  -0.000830  -0.000448
     55      -0.063432   0.001653   0.001020
     56       0.047974  -0.000843  -0.000344
     57      -0.000026   0.001545  -0.000769
     58       0.000075   0.000212   0.004464
     59      -0.000005   0.004359   0.001715
     60      -0.002980  -0.151242  -0.002587
     61       0.019276   0.912923   0.014738
     62       0.008330   0.367174   0.005537
     63      -0.001128   0.000046   0.001979
     64      -0.001442   0.000166  -0.003406
     65      -0.004276   0.000265   0.002465
     66      -0.424978   0.008614   0.005563
     67       0.723923  -0.015205  -0.009744
     68      -0.535457   0.010403   0.006785
     69      -0.000463   0.000252  -0.024986
     70       0.000126   0.000729  -0.018215
     71      -0.001145   0.001300  -0.083076
     72       0.003703  -0.004445   0.281384
     73       0.002320  -0.003735   0.202973
     74       0.011998  -0.015200   0.933430
     75       0.000027  -0.000009  -0.000174
     76       0.000381   0.000017   0.000495
     77       0.000400  -0.000009  -0.000048
     78      -0.000025  -0.000254   0.000171
     79       0.000043   0.000228  -0.000490
     80      -0.000030  -0.000499   0.000049


-----------
IR SPECTRUM
-----------

 Mode    freq (cm**-1)   T**2         TX         TY         TZ
-------------------------------------------------------------------
   6:        12.64    0.240237  ( -0.440017  -0.140184   0.164228)
   7:        54.06    1.355774  ( -1.050152  -0.329304   0.380149)
   8:        66.38    0.567937  (  0.679507   0.206178  -0.252384)
   9:        74.53    0.554189  (  0.230053   0.084633   0.702924)
  10:       169.28    0.170089  (  0.025479  -0.347376  -0.220838)
  11:       226.40    0.676238  (  0.741443   0.224369  -0.275968)
  12:       245.00    1.467482  ( -1.089220  -0.321215   0.421785)
  13:       245.42    0.205649  (  0.144458   0.258880   0.343165)
  14:       253.73    0.068764  ( -0.236250  -0.071633   0.088422)
  15:       260.81    0.738897  (  0.774705   0.244849  -0.280674)
  16:       298.30    0.393568  ( -0.200621  -0.084918  -0.588309)
  17:       300.67    0.484446  (  0.617748   0.209818  -0.242508)
  18:       321.48    1.184001  (  0.284325   0.278071   1.012836)
  19:       327.86    0.049967  (  0.204829   0.055546  -0.070192)
  20:       348.92    4.745303  (  0.647510   0.347982   2.050596)
  21:       395.91    0.156565  ( -0.129999  -0.016093  -0.373371)
  22:       401.03    0.165920  ( -0.367570  -0.114478   0.133070)
  23:       422.55    5.097429  (  0.626120   0.472572   2.117092)
  24:       527.19    3.569698  (  0.606320  -1.785023   0.125570)
  25:       534.98    5.504473  (  0.620656  -2.250622  -0.232290)
  26:       561.49    1.037101  (  0.430818  -0.364273   0.847822)
  27:       608.56   13.474142  ( -0.946062  -0.988295  -3.406227)
  28:       629.12    1.309260  (  1.025746   0.321073  -0.392450)
  29:       635.41    0.049932  (  0.196472   0.072041  -0.078360)
  30:       683.37   13.950989  (  1.555071  -1.246587   3.158918)
  31:       704.69   28.373995  (  4.796989   1.499109  -1.765096)
  32:       857.30   17.765471  ( -0.994441  -1.403665  -3.847893)
  33:       862.14    0.005810  ( -0.060476  -0.016380   0.043405)
  34:       880.97   96.159056  (  8.828254   2.773523  -3.244773)
  35:       910.40   46.600070  ( -6.144549  -1.932480   2.260554)
  36:       919.39   23.650496  ( -4.383267  -1.350586   1.616597)
  37:       976.44   26.265181  ( -1.874445   0.430802  -4.750373)
  38:       982.39    1.606971  ( -0.409565   1.199116  -0.036707)
  39:       982.57    3.127859  (  1.591379   0.510757  -0.578359)
  40:       999.03    0.107826  ( -0.297464  -0.086786   0.108669)
  41:      1043.45    0.406213  ( -0.279972   0.311762  -0.480243)
  42:      1060.74   76.412393  (  2.578432  -8.351475  -0.130149)
  43:      1069.72    0.718275  (  0.758837   0.198027  -0.321288)
  44:      1075.81   14.107551  (  0.088188  -2.976676  -2.288924)
  45:      1111.50    4.628739  (  0.931678  -1.089170   1.604501)
  46:      1209.34  100.033916  ( -3.323222   9.374899  -1.049465)
  47:      1219.91    1.711150  ( -0.077611  -0.883135  -0.961872)
  48:      1248.12   68.264709  (  2.405163   1.478777   7.764864)
  49:      1270.22    2.115767  ( -1.315412  -0.412043   0.464411)
  50:      1273.52    1.350641  ( -0.499052   0.524690  -0.909004)
  51:      1291.67    2.825574  ( -0.134905  -1.086834  -1.275212)
  52:      1367.02   33.350659  (  2.009342  -0.016080   5.414143)
  53:      1403.26   20.927994  ( -1.825408   1.010716  -4.071159)
  54:      1448.93   78.212956  (  2.891342   0.660999   8.331637)
  55:      1452.57   16.166536  ( -3.620279  -1.072335   1.382106)
  56:      1455.14   20.840851  (  0.858113  -4.331657  -1.158118)
  57:      1477.81    2.116349  (  0.094743  -1.233483  -0.765436)
  58:      1524.30    0.568741  ( -0.683411  -0.188053   0.257539)
  59:      1525.25    0.540769  ( -0.124467   0.707832   0.155724)
  60:      1526.16    0.009250  ( -0.086225  -0.017067   0.039033)
  61:      1545.35   72.275964  (  3.227238  -7.382248   2.713543)
  62:      1545.80   15.277516  (  3.617016   0.891854  -1.182923)
  63:      1552.33   17.501348  (  0.232359   2.806331   3.093843)
  64:      1554.97   50.155833  ( -2.326914   6.648995  -0.729499)
  65:      1560.53   32.208301  (  1.210379   2.159628   5.106789)
  66:      1712.71  255.379534  ( -5.840195  14.453792  -3.515614)
  67:      1728.67  238.861110  (  3.813103   4.623141  14.245979)
  68:      3100.36   26.040619  (  4.542731   1.592035  -1.694001)
  69:      3100.91   24.210761  (  1.688570  -4.618696   0.164726)
  70:      3104.87   54.422990  (  1.982301   1.774989   6.880617)
  71:      3178.03    6.808151  (  2.276459   0.688604  -1.073178)
  72:      3179.09   29.340515  (  1.563254   1.301179   5.020327)
  73:      3183.73   46.998467  ( -0.680898  -4.101702  -5.450769)
  74:      3190.66   20.250980  (  4.046466   1.311547  -1.468651)
  75:      3198.33    9.869974  ( -2.956551  -0.643297   0.845547)
  76:      3200.01   30.623267  (  2.221061  -4.016162   3.092022)
  77:      3217.20    5.155986  (  0.456647  -2.142022  -0.599336)
  78:      3279.01    1.355149  ( -0.476760   0.325505  -1.010888)
  79:      3284.69    0.708405  (  0.323406  -0.148882   0.762658)
  80:      3301.70    8.872352  (  0.894232   0.457824   2.804122)

The first frequency considered to be a vibration is 6
The total number of vibrations considered is 75


--------------------------
THERMOCHEMISTRY AT 298.15K
--------------------------

Temperature         ... 298.15 K
Pressure            ... 1.00 atm
Total Mass          ... 214.19 AMU

Throughout the following assumptions are being made:
  (1) The electronic state is orbitally nondegenerate
  (2) There are no thermally accessible electronically excited states
  (3) Hindered rotations indicated by low frequency modes are not
      treated as such but are treated as vibrations and this may
      cause some error
  (4) All equations used are the standard statistical mechanics
      equations for an ideal gas
  (5) All vibrations are strictly harmonic

freq.      12.64  E(vib)   ...       0.57 
freq.      54.06  E(vib)   ...       0.52 
freq.      66.38  E(vib)   ...       0.50 
freq.      74.53  E(vib)   ...       0.49 
freq.     169.28  E(vib)   ...       0.38 
freq.     226.40  E(vib)   ...       0.33 
freq.     245.00  E(vib)   ...       0.31 
freq.     245.42  E(vib)   ...       0.31 
freq.     253.73  E(vib)   ...       0.30 
freq.     260.81  E(vib)   ...       0.30 
freq.     298.30  E(vib)   ...       0.26 
freq.     300.67  E(vib)   ...       0.26 
freq.     321.48  E(vib)   ...       0.25 
freq.     327.86  E(vib)   ...       0.24 
freq.     348.92  E(vib)   ...       0.23 
freq.     395.91  E(vib)   ...       0.20 
freq.     401.03  E(vib)   ...       0.19 
freq.     422.55  E(vib)   ...       0.18 
freq.     527.19  E(vib)   ...       0.13 
freq.     534.98  E(vib)   ...       0.13 
freq.     561.49  E(vib)   ...       0.11 
freq.     608.56  E(vib)   ...       0.10 
freq.     629.12  E(vib)   ...       0.09 
freq.     635.41  E(vib)   ...       0.09 
freq.     683.37  E(vib)   ...       0.08 
freq.     704.69  E(vib)   ...       0.07 
freq.     857.30  E(vib)   ...       0.04 
freq.     862.14  E(vib)   ...       0.04 
freq.     880.97  E(vib)   ...       0.04 
freq.     910.40  E(vib)   ...       0.03 
freq.     919.39  E(vib)   ...       0.03 
freq.     976.44  E(vib)   ...       0.03 
freq.     982.39  E(vib)   ...       0.02 
freq.     982.57  E(vib)   ...       0.02 
freq.     999.03  E(vib)   ...       0.02 
freq.    1043.45  E(vib)   ...       0.02 
freq.    1060.74  E(vib)   ...       0.02 
freq.    1069.72  E(vib)   ...       0.02 
freq.    1075.81  E(vib)   ...       0.02 
freq.    1111.50  E(vib)   ...       0.01 
freq.    1209.34  E(vib)   ...       0.01 
freq.    1219.91  E(vib)   ...       0.01 
freq.    1248.12  E(vib)   ...       0.01 
freq.    1270.22  E(vib)   ...       0.01 
freq.    1273.52  E(vib)   ...       0.01 
freq.    1291.67  E(vib)   ...       0.01 
freq.    1367.02  E(vib)   ...       0.01 
freq.    1403.26  E(vib)   ...       0.00 
freq.    1448.93  E(vib)   ...       0.00 
freq.    1452.57  E(vib)   ...       0.00 
freq.    1455.14  E(vib)   ...       0.00 
freq.    1477.81  E(vib)   ...       0.00 
freq.    1524.30  E(vib)   ...       0.00 
freq.    1525.25  E(vib)   ...       0.00 
freq.    1526.16  E(vib)   ...       0.00 
freq.    1545.35  E(vib)   ...       0.00 
freq.    1545.80  E(vib)   ...       0.00 
freq.    1552.33  E(vib)   ...       0.00 
freq.    1554.97  E(vib)   ...       0.00 
freq.    1560.53  E(vib)   ...       0.00 
freq.    1712.71  E(vib)   ...       0.00 
freq.    1728.67  E(vib)   ...       0.00 
freq.    3100.36  E(vib)   ...       0.00 
freq.    3100.91  E(vib)   ...       0.00 
freq.    3104.87  E(vib)   ...       0.00 
freq.    3178.03  E(vib)   ...       0.00 
freq.    3179.09  E(vib)   ...       0.00 
freq.    3183.73  E(vib)   ...       0.00 
freq.    3190.66  E(vib)   ...       0.00 
freq.    3198.33  E(vib)   ...       0.00 
freq.    3200.01  E(vib)   ...       0.00 
freq.    3217.20  E(vib)   ...       0.00 
freq.    3279.01  E(vib)   ...       0.00 
freq.    3284.69  E(vib)   ...       0.00 
freq.    3301.70  E(vib)   ...       0.00 

------------
INNER ENERGY
------------

The inner energy is: U= E(el) + E(ZPE) + E(vib) + E(rot) + E(trans)
    E(el)   - is the total energy from the electronic structure calculation
              = E(kin-el) + E(nuc-el) + E(el-el) + E(nuc-nuc)
    E(ZPE)  - the the zero temperature vibrational energy from the frequency calculation
    E(vib)  - the the finite temperature correction to E(ZPE) due to population
              of excited vibrational states
    E(rot)  - is the rotational thermal energy
    E(trans)- is the translational thermal energy

Summary of contributions to the inner energy U:
Electronic energy                ...   -966.30279302 Eh
Zero point energy                ...      0.21973792 Eh     137.89 kcal/mol
Thermal vibrational correction   ...      0.01129086 Eh       7.09 kcal/mol
Thermal rotational correction    ...      0.00141627 Eh       0.89 kcal/mol
Thermal translational correction ...      0.00141627 Eh       0.89 kcal/mol
-----------------------------------------------------------------------
Total thermal energy                   -966.06893169 Eh


Summary of corrections to the electronic energy:
(perhaps to be used in another calculation)
Total thermal correction                  0.01412340 Eh       8.86 kcal/mol
Non-thermal (ZPE) correction              0.21973792 Eh     137.89 kcal/mol
-----------------------------------------------------------------------
Total correction                          0.23386132 Eh     146.75 kcal/mol


--------
ENTHALPY
--------

The enthalpy is H = U + kB*T
                kB is Boltzmann's constant
Total free energy                 ...   -966.06893169 Eh 
Thermal Enthalpy correction       ...      0.00094421 Eh       0.59 kcal/mol
-----------------------------------------------------------------------
Total Enthalpy                    ...   -966.06798749 Eh


Note: Only C1 symmetry has been detected, increase convergence thresholds 
      if your molecule has a higher symmetry. Symmetry factor of 1.0 is   
      used for the rotational entropy correction. 
 

Note: Rotational entropy computed according to Herzberg 
Infrared and Raman Spectra, Chapter V,1, Van Nostrand Reinhold, 1945 
Point Group:  C1, Symmetry Number:   1  
Rotational constants in cm-1:     0.040793     0.008753     0.007566 

Vibrational entropy computed according to the QRRHO of S. Grimme
Chem.Eur.J. 2012 18 9955


-------
ENTROPY
-------

The entropy contributions are T*S = T*(S(el)+S(vib)+S(rot)+S(trans))
     S(el)   - electronic entropy
     S(vib)  - vibrational entropy
     S(rot)  - rotational entropy
     S(trans)- translational entropy
The entropies will be listed as mutliplied by the temperature to get
units of energy

Electronic entropy                ...      0.00000000 Eh      0.00 kcal/mol
Vibrational entropy               ...      0.01965230 Eh     12.33 kcal/mol
Rotational entropy                ...      0.01556378 Eh      9.77 kcal/mol
Translational entropy             ...      0.01995004 Eh     12.52 kcal/mol
-----------------------------------------------------------------------
Final entropy term                ...      0.05516612 Eh     34.62 kcal/mol

In case the symmetry of your molecule has not been determined correctly
or in case you have a reason to use a different symmetry number we print 
out the resulting rotational entropy values for sn=1,12 :
 --------------------------------------------------------
|  sn= 1 | S(rot)=       0.01556378 Eh      9.77 kcal/mol|
|  sn= 2 | S(rot)=       0.01490933 Eh      9.36 kcal/mol|
|  sn= 3 | S(rot)=       0.01452649 Eh      9.12 kcal/mol|
|  sn= 4 | S(rot)=       0.01425487 Eh      8.95 kcal/mol|
|  sn= 5 | S(rot)=       0.01404418 Eh      8.81 kcal/mol|
|  sn= 6 | S(rot)=       0.01387204 Eh      8.70 kcal/mol|
|  sn= 7 | S(rot)=       0.01372649 Eh      8.61 kcal/mol|
|  sn= 8 | S(rot)=       0.01360041 Eh      8.53 kcal/mol|
|  sn= 9 | S(rot)=       0.01348920 Eh      8.46 kcal/mol|
|  sn=10 | S(rot)=       0.01338972 Eh      8.40 kcal/mol|
|  sn=11 | S(rot)=       0.01329973 Eh      8.35 kcal/mol|
|  sn=12 | S(rot)=       0.01321758 Eh      8.29 kcal/mol|
 --------------------------------------------------------


-------------------
GIBBS FREE ENERGY
-------------------

The Gibbs free energy is G = H - T*S

Total enthalpy                    ...   -966.06798749 Eh 
Total entropy correction          ...     -0.05516612 Eh    -34.62 kcal/mol
-----------------------------------------------------------------------
Final Gibbs free energy         ...   -966.12315360 Eh

For completeness - the Gibbs free energy minus the electronic energy
G-E(el)                           ...      0.17963941 Eh    112.73 kcal/mol

--------------------------------------------------------------------------
A system call failed during shared memory initialization that should
not have.  It is likely that your MPI job will now either abort or
experience performance degradation.

  Local host:  nv68
  System call: open(2) 
  Error:       Permission denied (errno 13)
--------------------------------------------------------------------------
[nv68:32663] 5 more processes have sent help message help-opal-shmem-mmap.txt / sys call fail
[nv68:32663] Set MCA parameter "orte_base_help_aggregate" to 0 to see all help / error messages

Timings for individual modules:

Sum of individual times         ...     2206.413 sec (=  36.774 min)
GTO integral calculation        ...       18.339 sec (=   0.306 min)   0.8 %
SCF iterations                  ...      450.513 sec (=   7.509 min)  20.4 %
SCF Gradient evaluation         ...      182.120 sec (=   3.035 min)   8.3 %
Geometry relaxation             ...        2.603 sec (=   0.043 min)   0.1 %
Analytical frequency calculation...     1552.837 sec (=  25.881 min)  70.4 %
                             ****ORCA TERMINATED NORMALLY****
TOTAL RUN TIME: 0 days 0 hours 36 minutes 51 seconds 978 msec
