   
Directorio /scratch/orca/aga/oxa-CO_TSpbe__EPkAkS creado correctamente en el nodo nv81
   
Job started from scc_ser_1, running on nv81 in /scratch/orca/aga/oxa-CO_TSpbe__EPkAkS using /home/apps/orca_4_2_1_linux_x86-64_openmpi314/orca
   
scp  nv81:/scratch/orca/aga/oxa-CO_TSpbe__EPkAkS/*.xyz .

                                 *****************
                                 * O   R   C   A *
                                 *****************

           --- An Ab Initio, DFT and Semiempirical electronic structure package ---

                  #######################################################
                  #                        -***-                        #
                  #          Department of theory and spectroscopy      #
                  #               Directorship: Frank Neese             #
                  #        Max Planck Institute fuer Kohlenforschung    #
                  #                Kaiser Wilhelm Platz 1               #
                  #                 D-45470 Muelheim/Ruhr               #
                  #                      Germany                        #
                  #                                                     #
                  #                  All rights reserved                #
                  #                        -***-                        #
                  #######################################################


                         Program Version 4.2.1 -  RELEASE  -


 With contributions from (in alphabetic order):
   Daniel Aravena         : Magnetic Suceptibility
   Michael Atanasov       : Ab Initio Ligand Field Theory (pilot matlab implementation)
   Alexander A. Auer      : GIAO ZORA, VPT2
   Ute Becker             : Parallelization
   Giovanni Bistoni       : ED, misc. LED, open-shell LED, HFLD
   Martin Brehm           : Molecular dynamics
   Dmytro Bykov           : SCF Hessian
   Vijay G. Chilkuri      : MRCI spin determinant printing, contributions to CSF-ICE
   Dipayan Datta          : RHF DLPNO-CCSD density
   Achintya Kumar Dutta   : EOM-CC, STEOM-CC
   Dmitry Ganyushin       : Spin-Orbit,Spin-Spin,Magnetic field MRCI
   Miquel Garcia          : C-PCM Hessian, Gaussian charge scheme
   Yang Guo               : DLPNO-NEVPT2, CIM, IAO-localization
   Andreas Hansen         : Spin unrestricted coupled pair/coupled cluster methods
   Benjamin Helmich-Paris : CASSCF linear response (MC-RPA)
   Lee Huntington         : MR-EOM, pCC
   Robert Izsak           : Overlap fitted RIJCOSX, COSX-SCS-MP3, EOM
   Christian Kollmar      : KDIIS, OOCD, Brueckner-CCSD(T), CCSD density
   Simone Kossmann        : Meta GGA functionals, TD-DFT gradient, OOMP2, MP2 Hessian
   Martin Krupicka        : AUTO-CI
   Lucas Lang             : DCDCAS
   Dagmar Lenk            : GEPOL surface, SMD
   Dimitrios Liakos       : Extrapolation schemes; Compound Job, initial MDCI parallelization
   Dimitrios Manganas     : Further ROCIS development; embedding schemes
   Dimitrios Pantazis     : SARC Basis sets
   Taras Petrenko         : DFT Hessian,TD-DFT gradient, ASA, ECA, R-Raman, ABS, FL, XAS/XES, NRVS
   Peter Pinski           : DLPNO-MP2, DLPNO-MP2 Gradient
   Christoph Reimann      : Effective Core Potentials
   Marius Retegan         : Local ZFS, SOC
   Christoph Riplinger    : Optimizer, TS searches, QM/MM, DLPNO-CCSD(T), (RO)-DLPNO pert. Triples
   Tobias Risthaus        : Range-separated hybrids, TD-DFT gradient, RPA, STAB
   Michael Roemelt        : Original ROCIS implementation
   Masaaki Saitow         : Open-shell DLPNO-CCSD energy and density
   Barbara Sandhoefer     : DKH picture change effects
   Avijit Sen             : IP-ROCIS
   Kantharuban Sivalingam : CASSCF convergence, NEVPT2, FIC-MRCI
   Bernardo de Souza      : ESD, SOC TD-DFT
   Georgi Stoychev        : AutoAux, RI-MP2 NMR
   Willem Van den Heuvel  : Paramagnetic NMR
   Boris Wezisla          : Elementary symmetry handling
   Frank Wennmohs         : Technical directorship


 We gratefully acknowledge several colleagues who have allowed us to
 interface, adapt or use parts of their codes:
   Stefan Grimme, W. Hujo, H. Kruse,             : VdW corrections, initial TS optimization,
                  C. Bannwarth                     DFT functionals, gCP, sTDA/sTD-DF
   Ed Valeev, F. Pavosevic, A. Kumar             : LibInt (2-el integral package), F12 methods
   Garnet Chan, S. Sharma, J. Yang, R. Olivares  : DMRG
   Ulf Ekstrom                                   : XCFun DFT Library
   Mihaly Kallay                                 : mrcc  (arbitrary order and MRCC methods)
   Andreas Klamt, Michael Diedenhofen            : otool_cosmo (COSMO solvation model)
   Jiri Pittner, Ondrej Demel                    : Mk-CCSD
   Frank Weinhold                                : gennbo (NPA and NBO analysis)
   Christopher J. Cramer and Donald G. Truhlar   : smd solvation model
   Lars Goerigk                                  : TD-DFT with DH, B97 family of functionals
   V. Asgeirsson, H. Jonsson                     : NEB implementation
   FAccTs GmbH                                   : IRC, NEB, NEB-TS, Multilevel, MM, QM/MM, CI optimization
   S Lehtola, MJT Oliveira, MAL Marques          : LibXC Library


 Your calculation uses the libint2 library for the computation of 2-el integrals
 For citations please refer to: http://libint.valeyev.net

 Your ORCA version has been built with support for libXC version: 4.2.3
 For citations please refer to: https://tddft.org/programs/libxc/

 This ORCA versions uses:
   CBLAS   interface :  Fast vector & matrix operations
   LAPACKE interface :  Fast linear algebra routines
   SCALAPACK package :  Parallel linear algebra routines


Your calculation utilizes the geometrical counterpoise correction gCP
Please cite in your paper:
H.Kruse, S. Grimme J.Chem.Phys., 136, (2012), 154101 
   

Your calculation utilizes the atom-pairwise dispersion correction
with the Becke-Johnson damping scheme (D3BJ)
Cite in your paper:
S.Grimme, S.Ehrlich, L.Goerigk, J Comput Chem, (2011), 32, 1456–1465 
S.Grimme, J.Antony, S.Ehrlich and H.Krieg, J.Chem.Phys., 132, (2010), 154104 
   

Your calculation employs the composite approach PBEh-3c.
Please cite in your paper:
S. Grimme, J. G. Brandenburg, C. Bannwarth, A. Hansen J.Chem.Phys., 143, (2015), 054107 
   

----- Orbital basis set information -----
Your calculation utilizes the basis: def2-mSVP

----- AuxJ basis set information -----
Your calculation utilizes the auxiliary basis: def2/J
   F. Weigend, Phys. Chem. Chem. Phys. 8, 1057 (2006).

================================================================================
                                        WARNINGS
                       Please study these warnings very carefully!
================================================================================


WARNING: Split-RI-J cannot be used together with RIJONX
  ===> : Split-RI-J will be disabled

WARNING: Geometry Optimization
  ===> : Switching off AutoStart
         For restart on a previous wavefunction, please use MOREAD

INFO   : the flag for use of LIBINT has been found!

================================================================================
                                       INPUT FILE
================================================================================
NAME = oxa-CO_TSpbe.inp
|  1> # C-C6H4F2-P-tBu-oxaphosphirane
|  2> # After full opt. at CPCM(toluene)-RIJCOSX-B3LYP-D4/def2-TZVP (orca 4.2.1)
|  3> # C-O 1.43478 A  
|  4> # C-O elongation scan from 1.43 to 4.43A (step +0.05A)
|  5> # taking maximum at scanpoint 17 for TS search
|  6> # After full TSopt. at CPCM(toluene)-RIJCOSX-B3LYP-D4/def2-TZVP (orca 4.2.1)
|  7> 
|  8> ! PBEh-3c TightSCF TightOpt OptTS
|  9> ! Grid6 GridX7 NoFinalGrid CPCM(toluene) Freq
| 10> ! PAL8
| 11> 
| 12> %geom Calc_Hess    true
| 13>       Recalc_Hess  35
| 14>       MaxIter  300
| 15>       TolE     2e-6 # Def 5e-6, Tight 1e-6 
| 16>       TolRMSG  4e-5 # Def 1e-4, Tight 3e-5
| 17>       TolMaxG  1.5e-4 # Def 3e-3, Tight 1e-4
| 18>       TolRMSD  8e-4 # Def 2e-3, Tight 6e-4
| 19>       TolMaxD  2e-3 # Def 4e-3, Tight 1e-3
| 20>       end
| 21> %maxcore 2500
| 22> %scf maxiter 250 end
| 23> 
| 24> *xyz 0 1
| 25>   C   1.31596405079079      0.76211606651380      0.07684068504875
| 26>   O   1.36688029092475      2.39018354430722     -1.46964938254480
| 27>   H   2.09416430812852      0.33725806936567     -0.54777613904570
| 28>   P   0.10454011826860      1.73673724151459     -0.84184506453784
| 29>   C   -0.66947327312448      0.47904525236114     -2.01806758938377
| 30>   C   -1.28899171983263      1.32584878406949     -3.13821675850593
| 31>   H   -1.78286792999943      0.67393676056149     -3.86438394231491
| 32>   H   -2.03235330176323      2.02604012345811     -2.75000951835020
| 33>   H   -0.52557879835813      1.89994257039435     -3.66814036834998
| 34>   C   0.36503722795777     -0.48303016984325     -2.60577339714506
| 35>   H   0.71934086857621     -1.19540076327695     -1.85921569279048
| 36>   H   -0.08035741557036     -1.05343175489845     -3.42684510029258
| 37>   H   1.22622052370113      0.05649341367375     -3.00532305257748
| 38>   C   -1.75612909719483     -0.27301617637656     -1.24551841551863
| 39>   H   -2.49125373200301      0.41354313928172     -0.81927004575458
| 40>   H   -2.28784248731118     -0.95599480982707     -1.91447925087989
| 41>   H   -1.33283235911816     -0.86730626907255     -0.43220375677003
| 42>   C   1.58655267133997      0.81981754910908      1.46944407263397
| 43>   C   2.71719045937316      0.13663305914398      1.96851510521517
| 44>   C   0.70063442255880      1.44894868760690      2.37040601276385
| 45>   C   2.90335718888398      0.06430981104218      3.32960216314698
| 46>   H   3.41924170167721     -0.33695238811867      1.29667114762988
| 47>   C   0.94504798232076      1.34163319187513      3.71897881818989
| 48>   H   -0.14275329230366      2.01944793926530      2.00757952734363
| 49>   C   2.03831140818715      0.65930442763453      4.23561029269732
| 50>   H   2.21642226303055      0.60892729963256      5.30056644368067
| 51>   F   0.10282679335664      1.92939632755828      4.58863217220742
| 52>   F   3.97271343750300     -0.59608343695589      3.81129707420435
| 53> *
| 54> 
| 55>                          ****END OF INPUT****
================================================================================

                       *****************************
                       * Geometry Optimization Run *
                       *****************************

Geometry optimization settings:
Update method            Update   .... Bofill
Choice of coordinates    CoordSys .... Z-matrix Internals
Initial Hessian          InHess   .... Almoef's Model

Convergence Tolerances:
Energy Change            TolE     ....  2.0000e-06 Eh
Max. Gradient            TolMAXG  ....  1.5000e-04 Eh/bohr
RMS Gradient             TolRMSG  ....  4.0000e-05 Eh/bohr
Max. Displacement        TolMAXD  ....  2.0000e-03 bohr
RMS Displacement         TolRMSD  ....  8.0000e-04 bohr
Strict Convergence                ....  False
------------------------------------------------------------------------------
                        ORCA OPTIMIZATION COORDINATE SETUP
------------------------------------------------------------------------------

The optimization will be done in new redundant internal coordinates
Making redundant internal coordinates   ...  (new redundants) done
Following TS mode number                ...     0
Evaluating the initial hessian          ...  (Is done on the fly) done
Evaluating the coordinates              ...  done
Calculating the B-matrix                .... done
Calculating the G-matrix                .... done
Diagonalizing the G-matrix              .... done
Small eigenvalue found = 6.128e-03
Small eigenvalue found = 1.141e-02
Small eigenvalue found = 2.228e-02
The first mode is                       ....   63
The number of degrees of freedom        ....   78

    -----------------------------------------------------------------
                    Redundant Internal Coordinates


    -----------------------------------------------------------------
         Definition                    Initial Value    d2E/dq (diagonal element)
    -----------------------------------------------------------------
      1. B(H   2,C   0)                  1.0845         0.000000   
      2. B(P   3,O   1)                  1.5539         0.000000   
      3. B(P   3,C   0)                  1.8059         0.000000   
      4. B(C   4,P   3)                  1.8880         0.000000   
      5. B(C   5,C   4)                  1.5348         0.000000   
      6. B(H   6,C   5)                  1.0937         0.000000   
      7. B(H   7,C   5)                  1.0925         0.000000   
      8. B(H   8,C   5)                  1.0923         0.000000   
      9. B(C   9,C   4)                  1.5301         0.000000   
     10. B(H  10,C   9)                  1.0910         0.000000   
     11. B(H  11,C   9)                  1.0945         0.000000   
     12. B(H  12,C   9)                  1.0920         0.000000   
     13. B(C  13,C   4)                  1.5308         0.000000   
     14. B(H  14,C  13)                  1.0925         0.000000   
     15. B(H  15,C  13)                  1.0939         0.000000   
     16. B(H  16,C  13)                  1.0926         0.000000   
     17. B(C  17,C   0)                  1.4198         0.000000   
     18. B(C  18,C  17)                  1.4121         0.000000   
     19. B(C  19,C  17)                  1.4115         0.000000   
     20. B(C  20,C  18)                  1.3757         0.000000   
     21. B(H  21,C  18)                  1.0810         0.000000   
     22. B(C  22,C  19)                  1.3747         0.000000   
     23. B(H  23,C  19)                  1.0809         0.000000   
     24. B(C  24,C  22)                  1.3884         0.000000   
     25. B(C  24,C  20)                  1.3868         0.000000   
     26. B(H  25,C  24)                  1.0809         0.000000   
     27. B(F  26,C  22)                  1.3458         0.000000   
     28. B(F  27,C  20)                  1.3460         0.000000   
     29. A(H   2,C   0,P   3)          113.5631         0.000000   
     30. A(H   2,C   0,C  17)          116.3630         0.000000   
     31. A(P   3,C   0,C  17)          127.2187         0.000000   
     32. A(C   0,P   3,O   1)           83.5425         0.000000   
     33. A(C   0,P   3,C   4)          103.4399         0.000000   
     34. A(O   1,P   3,C   4)          111.1908         0.000000   
     35. A(C   5,C   4,C  13)          110.6623         0.000000   
     36. A(C   5,C   4,C   9)          109.8461         0.000000   
     37. A(P   3,C   4,C  13)          107.6916         0.000000   
     38. A(P   3,C   4,C   9)          112.3940         0.000000   
     39. A(C   9,C   4,C  13)          111.4007         0.000000   
     40. A(P   3,C   4,C   5)          104.6334         0.000000   
     41. A(C   4,C   5,H   6)          109.7536         0.000000   
     42. A(H   7,C   5,H   8)          108.1243         0.000000   
     43. A(H   6,C   5,H   8)          107.8634         0.000000   
     44. A(C   4,C   5,H   8)          111.2190         0.000000   
     45. A(H   6,C   5,H   7)          108.1007         0.000000   
     46. A(C   4,C   5,H   7)          111.6492         0.000000   
     47. A(C   4,C   9,H  11)          109.9193         0.000000   
     48. A(C   4,C   9,H  10)          111.5478         0.000000   
     49. A(H  11,C   9,H  12)          107.6947         0.000000   
     50. A(H  10,C   9,H  12)          108.4738         0.000000   
     51. A(C   4,C   9,H  12)          111.2904         0.000000   
     52. A(H  10,C   9,H  11)          107.7702         0.000000   
     53. A(H  15,C  13,H  16)          107.6930         0.000000   
     54. A(H  14,C  13,H  16)          108.1848         0.000000   
     55. A(C   4,C  13,H  16)          111.5845         0.000000   
     56. A(H  14,C  13,H  15)          107.6915         0.000000   
     57. A(C   4,C  13,H  15)          110.0690         0.000000   
     58. A(C   4,C  13,H  14)          111.4592         0.000000   
     59. A(C   0,C  17,C  18)          118.6570         0.000000   
     60. A(C  18,C  17,C  19)          119.5095         0.000000   
     61. A(C   0,C  17,C  19)          121.6383         0.000000   
     62. A(C  20,C  18,H  21)          120.2651         0.000000   
     63. A(C  17,C  18,H  21)          120.8164         0.000000   
     64. A(C  17,C  18,C  20)          118.9113         0.000000   
     65. A(C  22,C  19,H  23)          120.6099         0.000000   
     66. A(C  17,C  19,H  23)          120.7102         0.000000   
     67. A(C  17,C  19,C  22)          118.6700         0.000000   
     68. A(C  24,C  20,F  27)          118.1824         0.000000   
     69. A(C  18,C  20,F  27)          119.1695         0.000000   
     70. A(C  18,C  20,C  24)          122.6443         0.000000   
     71. A(C  24,C  22,F  26)          117.8377         0.000000   
     72. A(C  19,C  22,F  26)          119.2456         0.000000   
     73. A(C  19,C  22,C  24)          122.9138         0.000000   
     74. A(C  22,C  24,H  25)          121.2824         0.000000   
     75. A(C  20,C  24,H  25)          121.3917         0.000000   
     76. A(C  20,C  24,C  22)          117.3178         0.000000   
     77. D(C   4,P   3,C   0,C  17)   -138.0118         0.000000   
     78. D(C   4,P   3,C   0,H   2)     62.0021         0.000000   
     79. D(O   1,P   3,C   0,H   2)    -48.3005         0.000000   
     80. D(O   1,P   3,C   0,C  17)    111.6856         0.000000   
     81. D(C   9,C   4,P   3,C   0)    -40.2824         0.000000   
     82. D(C   9,C   4,P   3,O   1)     47.9198         0.000000   
     83. D(C  13,C   4,P   3,C   0)     82.7885         0.000000   
     84. D(C  13,C   4,P   3,O   1)    170.9906         0.000000   
     85. D(C   5,C   4,P   3,O   1)    -71.2293         0.000000   
     86. D(C   5,C   4,P   3,C   0)   -159.4315         0.000000   
     87. D(H   6,C   5,C   4,P   3)   -178.8930         0.000000   
     88. D(H   6,C   5,C   4,C   9)     60.2533         0.000000   
     89. D(H   6,C   5,C   4,C  13)    -63.1624         0.000000   
     90. D(H   7,C   5,C   4,C   9)   -179.8985         0.000000   
     91. D(H   7,C   5,C   4,P   3)    -59.0447         0.000000   
     92. D(H   8,C   5,C   4,C  13)    177.5589         0.000000   
     93. D(H   8,C   5,C   4,C   9)    -59.0254         0.000000   
     94. D(H   8,C   5,C   4,P   3)     61.8283         0.000000   
     95. D(H   7,C   5,C   4,C  13)     56.6859         0.000000   
     96. D(H  12,C   9,C   4,C  13)   -170.1704         0.000000   
     97. D(H  12,C   9,C   4,P   3)    -49.2059         0.000000   
     98. D(H  11,C   9,C   4,C  13)     70.6085         0.000000   
     99. D(H  11,C   9,C   4,C   5)    -52.3733         0.000000   
    100. D(H  11,C   9,C   4,P   3)   -168.4270         0.000000   
    101. D(H  10,C   9,C   4,C  13)    -48.8706         0.000000   
    102. D(H  12,C   9,C   4,C   5)     66.8478         0.000000   
    103. D(H  10,C   9,C   4,C   5)   -171.8524         0.000000   
    104. D(H  10,C   9,C   4,P   3)     72.0938         0.000000   
    105. D(H  14,C  13,C   4,C   9)    179.5816         0.000000   
    106. D(H  14,C  13,C   4,C   5)    -57.9049         0.000000   
    107. D(H  14,C  13,C   4,P   3)     55.9046         0.000000   
    108. D(H  16,C  13,C   4,C   9)     58.5088         0.000000   
    109. D(H  16,C  13,C   4,C   5)   -178.9777         0.000000   
    110. D(H  16,C  13,C   4,P   3)    -65.1682         0.000000   
    111. D(H  15,C  13,C   4,C   9)    -60.9960         0.000000   
    112. D(H  15,C  13,C   4,C   5)     61.5175         0.000000   
    113. D(H  15,C  13,C   4,P   3)    175.3270         0.000000   
    114. D(C  19,C  17,C   0,P   3)     15.2395         0.000000   
    115. D(C  19,C  17,C   0,H   2)    174.7445         0.000000   
    116. D(C  18,C  17,C   0,P   3)   -169.8641         0.000000   
    117. D(C  18,C  17,C   0,H   2)    -10.3591         0.000000   
    118. D(H  21,C  18,C  17,C  19)   -178.8610         0.000000   
    119. D(H  21,C  18,C  17,C   0)      6.1315         0.000000   
    120. D(C  20,C  18,C  17,C  19)      2.1120         0.000000   
    121. D(C  20,C  18,C  17,C   0)   -172.8955         0.000000   
    122. D(H  23,C  19,C  17,C  18)    176.8731         0.000000   
    123. D(H  23,C  19,C  17,C   0)     -8.2731         0.000000   
    124. D(C  22,C  19,C  17,C  18)     -1.9893         0.000000   
    125. D(C  22,C  19,C  17,C   0)    172.8646         0.000000   
    126. D(F  27,C  20,C  18,H  21)      0.3646         0.000000   
    127. D(F  27,C  20,C  18,C  17)    179.3972         0.000000   
    128. D(C  24,C  20,C  18,H  21)    179.6387         0.000000   
    129. D(C  24,C  20,C  18,C  17)     -1.3288         0.000000   
    130. D(F  26,C  22,C  19,H  23)      1.5777         0.000000   
    131. D(F  26,C  22,C  19,C  17)   -179.5587         0.000000   
    132. D(C  24,C  22,C  19,H  23)   -177.7811         0.000000   
    133. D(C  24,C  22,C  19,C  17)      1.0824         0.000000   
    134. D(C  20,C  24,C  22,C  19)     -0.2690         0.000000   
    135. D(H  25,C  24,C  20,F  27)      0.7021         0.000000   
    136. D(H  25,C  24,C  20,C  18)   -178.5787         0.000000   
    137. D(C  22,C  24,C  20,F  27)    179.6752         0.000000   
    138. D(C  20,C  24,C  22,F  26)   -179.6363         0.000000   
    139. D(C  22,C  24,C  20,C  18)      0.3943         0.000000   
    140. D(H  25,C  24,C  22,F  26)     -0.6621         0.000000   
    141. D(H  25,C  24,C  22,C  19)    178.7052         0.000000   
    -----------------------------------------------------------------

Number of atoms                         .... 28
Number of degrees of freedom            .... 141

Time needed for optimization step       :     1.95 sec

         *************************************************************
         *                GEOMETRY OPTIMIZATION CYCLE   1            *
         *************************************************************
---------------------------------
CARTESIAN COORDINATES (ANGSTROEM)
---------------------------------
  C      1.315964    0.762116    0.076841
  O      1.366880    2.390184   -1.469649
  H      2.094164    0.337258   -0.547776
  P      0.104540    1.736737   -0.841845
  C     -0.669473    0.479045   -2.018068
  C     -1.288992    1.325849   -3.138217
  H     -1.782868    0.673937   -3.864384
  H     -2.032353    2.026040   -2.750010
  H     -0.525579    1.899943   -3.668140
  C      0.365037   -0.483030   -2.605773
  H      0.719341   -1.195401   -1.859216
  H     -0.080357   -1.053432   -3.426845
  H      1.226221    0.056493   -3.005323
  C     -1.756129   -0.273016   -1.245518
  H     -2.491254    0.413543   -0.819270
  H     -2.287842   -0.955995   -1.914479
  H     -1.332832   -0.867306   -0.432204
  C      1.586553    0.819818    1.469444
  C      2.717190    0.136633    1.968515
  C      0.700634    1.448949    2.370406
  C      2.903357    0.064310    3.329602
  H      3.419242   -0.336952    1.296671
  C      0.945048    1.341633    3.718979
  H     -0.142753    2.019448    2.007580
  C      2.038311    0.659304    4.235610
  H      2.216422    0.608927    5.300566
  F      0.102827    1.929396    4.588632
  F      3.972713   -0.596083    3.811297

----------------------------
CARTESIAN COORDINATES (A.U.)
----------------------------
  NO LB      ZA    FRAG     MASS         X           Y           Z
   0 C     6.0000    0    12.011    2.486812    1.440191    0.145208
   1 O     8.0000    0    15.999    2.583029    4.516792   -2.777235
   2 H     1.0000    0     1.008    3.957397    0.637325   -1.035147
   3 P    15.0000    0    30.974    0.197552    3.281958   -1.590857
   4 C     6.0000    0    12.011   -1.265121    0.905264   -3.813595
   5 C     6.0000    0    12.011   -2.435841    2.505491   -5.930370
   6 H     1.0000    0     1.008   -3.369132    1.273556   -7.302627
   7 H     1.0000    0     1.008   -3.840591    3.828661   -5.196765
   8 H     1.0000    0     1.008   -0.993200    3.590371   -6.931781
   9 C     6.0000    0    12.011    0.689820   -0.912795   -4.924198
  10 H     1.0000    0     1.008    1.359357   -2.258980   -3.513408
  11 H     1.0000    0     1.008   -0.151854   -1.990698   -6.475799
  12 H     1.0000    0     1.008    2.317221    0.106757   -5.679238
  13 C     6.0000    0    12.011   -3.318603   -0.515926   -2.353689
  14 H     1.0000    0     1.008   -4.707787    0.781483   -1.548196
  15 H     1.0000    0     1.008   -4.323396   -1.806568   -3.617841
  16 H     1.0000    0     1.008   -2.518688   -1.638971   -0.816747
  17 C     6.0000    0    12.011    2.998150    1.549231    2.776847
  18 C     6.0000    0    12.011    5.134746    0.258199    3.719954
  19 C     6.0000    0    12.011    1.324007    2.738116    4.479418
  20 C     6.0000    0    12.011    5.486550    0.121528    6.292036
  21 H     1.0000    0     1.008    6.461430   -0.636748    2.450353
  22 C     6.0000    0    12.011    1.785882    2.535319    7.027851
  23 H     1.0000    0     1.008   -0.269765    3.816204    3.793775
  24 C     6.0000    0    12.011    3.851850    1.245905    8.004143
  25 H     1.0000    0     1.008    4.188431    1.150706   10.016619
  26 F     9.0000    0    18.998    0.194314    3.646031    8.671258
  27 F     9.0000    0    18.998    7.507340   -1.126434    7.202308

--------------------------------
INTERNAL COORDINATES (ANGSTROEM)
--------------------------------
 C      0   0   0     0.000000000000     0.00000000     0.00000000
 O      1   0   0     2.246069390051     0.00000000     0.00000000
 H      1   2   0     1.084548816422    82.59651805     0.00000000
 P      2   1   3     1.553908956098    53.02930105   136.35859727
 C      4   2   1     1.887957970293   111.19081355   258.05382985
 C      5   4   2     1.534800797566   104.63343381   288.77070060
 H      6   5   4     1.093719240118   109.75357851   181.10704181
 H      6   5   4     1.092501356775   111.64924633   300.95531567
 H      6   5   4     1.092337858193   111.21900957    61.82834483
 C      5   4   2     1.530097778358   112.39402353    47.91978658
 H     10   5   4     1.091032235122   111.54784311    72.09379267
 H     10   5   4     1.094483027930   109.91930179   191.57296570
 H     10   5   4     1.091953429957   111.29042721   310.79406675
 C      5   4   2     1.530767617446   107.69157050   170.99062162
 H     14   5   4     1.092455763565   111.45920506    55.90459915
 H     14   5   4     1.093932146994   110.06899093   175.32702754
 H     14   5   4     1.092630576580   111.58447740   294.83178460
 C      1   2   3     1.419821065409   129.90783425   118.36479867
 C     18   1   2     1.412145442445   118.65699853   246.51926170
 C     18   1   2     1.411520297592   121.63832774    71.62288550
 C     19  18   1     1.375662270567   118.91128696   187.10448393
 H     19  18   1     1.080987246004   120.81638174     6.13151678
 C     20  18   1     1.374737507801   118.66996334   172.86458216
 H     20  18   1     1.080932603008   120.71019633   351.72694296
 C     21  19  18     1.386785321269   122.64429624   358.67123374
 H     25  21  19     1.080922261384   121.39165401   181.42127892
 F     23  20  18     1.345770779502   119.24557527   180.44125640
 F     21  19  18     1.345983661045   119.16947876   179.39718335

---------------------------
INTERNAL COORDINATES (A.U.)
---------------------------
 C      0   0   0     0.000000000000     0.00000000     0.00000000
 O      1   0   0     4.244456024980     0.00000000     0.00000000
 H      1   2   0     2.049500241907    82.59651805     0.00000000
 P      2   1   3     2.936462364074    53.02930105   136.35859727
 C      4   2   1     3.567723516207   111.19081355   258.05382985
 C      5   4   2     2.900353177524   104.63343381   288.77070060
 H      6   5   4     2.066829831223   109.75357851   181.10704181
 H      6   5   4     2.064528365242   111.64924633   300.95531567
 H      6   5   4     2.064219397698   111.21900957    61.82834483
 C      5   4   2     2.891465759218   112.39402353    47.91978658
 H     10   5   4     2.061752127661   111.54784311    72.09379267
 H     10   5   4     2.068273181012   109.91930179   191.57296570
 H     10   5   4     2.063492933614   111.29042721   310.79406675
 C      5   4   2     2.892731571648   107.69157050   170.99062162
 H     14   5   4     2.064442206561   111.45920506    55.90459915
 H     14   5   4     2.067232166911   110.06899093   175.32702754
 H     14   5   4     2.064772555285   111.58447740   294.83178460
 C      1   2   3     2.683072972795   129.90783425   118.36479867
 C     18   1   2     2.668568147487   118.65699853   246.51926170
 C     18   1   2     2.667386794920   121.63832774    71.62288550
 C     19  18   1     2.599624944140   118.91128696   187.10448393
 H     19  18   1     2.042769849209   120.81638174     6.13151678
 C     20  18   1     2.597877395773   118.66996334   172.86458216
 H     20  18   1     2.042666588912   120.71019633   351.72694296
 C     21  19  18     2.620644463740   122.64429624   358.67123374
 H     25  21  19     2.042647046075   121.39165401   181.42127892
 F     23  20  18     2.543138212293   119.24557527   180.44125640
 F     21  19  18     2.543540500108   119.16947876   179.39718335

---------------------
BASIS SET INFORMATION
---------------------
There are 5 groups of distinct atoms

 Group   1 Type C   : 8s4p1d contracted to 4s2p1d pattern {5111/31/1}
 Group   2 Type O   : 8s4p1d contracted to 4s2p1d pattern {5111/31/1}
 Group   3 Type H   : 4s contracted to 2s pattern {31}
 Group   4 Type P   : 10s7p1d contracted to 4s3p1d pattern {5311/511/1}
 Group   5 Type F   : 8s4p1d contracted to 4s2p1d pattern {5111/31/1}

Atom   0C    basis set group =>   1
Atom   1O    basis set group =>   2
Atom   2H    basis set group =>   3
Atom   3P    basis set group =>   4
Atom   4C    basis set group =>   1
Atom   5C    basis set group =>   1
Atom   6H    basis set group =>   3
Atom   7H    basis set group =>   3
Atom   8H    basis set group =>   3
Atom   9C    basis set group =>   1
Atom  10H    basis set group =>   3
Atom  11H    basis set group =>   3
Atom  12H    basis set group =>   3
Atom  13C    basis set group =>   1
Atom  14H    basis set group =>   3
Atom  15H    basis set group =>   3
Atom  16H    basis set group =>   3
Atom  17C    basis set group =>   1
Atom  18C    basis set group =>   1
Atom  19C    basis set group =>   1
Atom  20C    basis set group =>   1
Atom  21H    basis set group =>   3
Atom  22C    basis set group =>   1
Atom  23H    basis set group =>   3
Atom  24C    basis set group =>   1
Atom  25H    basis set group =>   3
Atom  26F    basis set group =>   5
Atom  27F    basis set group =>   5
---------------------------------
AUXILIARY/J BASIS SET INFORMATION
---------------------------------
There are 5 groups of distinct atoms

 Group   1 Type C   : 12s5p4d2f1g contracted to 6s4p3d1f1g pattern {711111/2111/211/2/1}
 Group   2 Type O   : 12s5p4d2f1g contracted to 6s4p3d1f1g pattern {711111/2111/211/2/1}
 Group   3 Type H   : 5s2p1d contracted to 3s1p1d pattern {311/2/1}
 Group   4 Type P   : 14s5p5d2f1g contracted to 8s4p3d1f1g pattern {71111111/2111/311/2/1}
 Group   5 Type F   : 12s5p4d2f1g contracted to 6s4p3d1f1g pattern {711111/2111/211/2/1}

Atom   0C    basis set group =>   1
Atom   1O    basis set group =>   2
Atom   2H    basis set group =>   3
Atom   3P    basis set group =>   4
Atom   4C    basis set group =>   1
Atom   5C    basis set group =>   1
Atom   6H    basis set group =>   3
Atom   7H    basis set group =>   3
Atom   8H    basis set group =>   3
Atom   9C    basis set group =>   1
Atom  10H    basis set group =>   3
Atom  11H    basis set group =>   3
Atom  12H    basis set group =>   3
Atom  13C    basis set group =>   1
Atom  14H    basis set group =>   3
Atom  15H    basis set group =>   3
Atom  16H    basis set group =>   3
Atom  17C    basis set group =>   1
Atom  18C    basis set group =>   1
Atom  19C    basis set group =>   1
Atom  20C    basis set group =>   1
Atom  21H    basis set group =>   3
Atom  22C    basis set group =>   1
Atom  23H    basis set group =>   3
Atom  24C    basis set group =>   1
Atom  25H    basis set group =>   3
Atom  26F    basis set group =>   5
Atom  27F    basis set group =>   5
--------------------------------------------------------------------------
A system call failed during shared memory initialization that should
not have.  It is likely that your MPI job will now either abort or
experience performance degradation.

  Local host:  nv81
  System call: open(2) 
  Error:       Permission denied (errno 13)
--------------------------------------------------------------------------


           ************************************************************
           *        Program running with 8 parallel MPI-processes     *
           *              working on a common directory               *
           ************************************************************
------------------------------------------------------------------------------
                           ORCA GTO INTEGRAL CALCULATION
                           -- RI-GTO INTEGRALS CHOSEN --
------------------------------------------------------------------------------

                         BASIS SET STATISTICS AND STARTUP INFO

Gaussian basis set:
 # of primitive gaussian shells          ...  252
 # of primitive gaussian functions       ...  438
 # of contracted shells                  ...  132
 # of contracted basis functions         ...  254
 Highest angular momentum                ...    2
 Maximum contraction depth               ...    5
Auxiliary gaussian basis set:
 # of primitive gaussian shells          ...  467
 # of primitive gaussian functions       ... 1265
 # of contracted shells                  ...  292
 # of contracted aux-basis functions     ...  880
 Highest angular momentum                ...    4
 Maximum contraction depth               ...    7
Ratio of auxiliary to basis functions    ...  3.46
Integral package used                  ... LIBINT
 One Electron integrals                  ... done
 Ordering auxiliary basis shells         ... done
 Integral threshhold             Thresh  ...  2.500e-11
 Primitive cut-off               TCut    ...  2.500e-12
 Pre-screening matrix                    ... done
 Shell pair data                         ... 
 Ordering of the shell pairs             ... done (   0.002 sec) 6370 of 8778 pairs
 Determination of significant pairs      ... done (   0.000 sec)
 Creation of shell pair data             ... done (   0.002 sec)
 Storage of shell pair data              ... done (   0.005 sec)
 Shell pair data done in (   0.010 sec)
 Computing two index integrals           ... done
 Cholesky decomposition of the V-matrix  ... done


Timings:
 Total evaluation time                   ...   0.680 sec (  0.011 min)
 One electron matrix time                ...   0.102 sec (  0.002 min) = 15.0%
 Schwartz matrix evaluation time         ...   0.417 sec (  0.007 min) = 61.3%
 Two index repulsion integral time       ...   0.057 sec (  0.001 min) =  8.4%
 Cholesky decomposition of V             ...   0.056 sec (  0.001 min) =  8.3%
 Three index repulsion integral time     ...   0.000 sec (  0.000 min) =  0.0%

[nv81:17197] 5 more processes have sent help message help-opal-shmem-mmap.txt / sys call fail
[nv81:17197] Set MCA parameter "orte_base_help_aggregate" to 0 to see all help / error messages
--------------------------------------------------------------------------
A system call failed during shared memory initialization that should
not have.  It is likely that your MPI job will now either abort or
experience performance degradation.

  Local host:  nv81
  System call: open(2) 
  Error:       Permission denied (errno 13)
--------------------------------------------------------------------------


           ************************************************************
           *        Program running with 8 parallel MPI-processes     *
           *              working on a common directory               *
           ************************************************************
-------------------------------------------------------------------------------
                                 ORCA SCF
-------------------------------------------------------------------------------

------------
SCF SETTINGS
------------
Hamiltonian:
 Density Functional     Method          .... DFT(GTOs)
 Exchange Functional    Exchange        .... PBE
   PBE kappa parameter   XKappa         ....  1.024500
   PBE mue parameter    XMuePBE         ....  0.123457
 Correlation Functional Correlation     .... PBE
   PBE beta parameter  CBetaPBE         ....  0.030000
 LDA part of GGA corr.  LDAOpt          .... PW91-LDA
 Gradients option       PostSCFGGA      .... off
 Hybrid DFT is turned on
   Fraction HF Exchange ScalHFX         ....  0.420000
   Scaling of DF-GGA-X  ScalDFX         ....  0.580000
   Scaling of DF-GGA-C  ScalDFC         ....  1.000000
   Scaling of DF-LDA-C  ScalLDAC        ....  1.000000
   Perturbative correction              ....  0.000000
   Density functional embedding theory  .... OFF
 RI-approximation to the Coulomb term is turned on
   Number of auxiliary basis functions  .... 880
   RIJ-ON(X) (HFX calculated with O(N)) .... on


General Settings:
 Integral files         IntName         .... oxa-CO_TSpbe
 Hartree-Fock type      HFTyp           .... RHF
 Total Charge           Charge          ....    0
 Multiplicity           Mult            ....    1
 Number of Electrons    NEL             ....  120
 Basis Dimension        Dim             ....  254
 Nuclear Repulsion      ENuc            ....   1090.5174065679 Eh

Convergence Acceleration:
 DIIS                   CNVDIIS         .... on
   Start iteration      DIISMaxIt       ....    12
   Startup error        DIISStart       ....  0.200000
   # of expansion vecs  DIISMaxEq       ....     5
   Bias factor          DIISBfac        ....   1.050
   Max. coefficient     DIISMaxC        ....  10.000
 Newton-Raphson         CNVNR           .... off
 SOSCF                  CNVSOSCF        .... on
   Start iteration      SOSCFMaxIt      ....   150
   Startup grad/error   SOSCFStart      ....  0.003300
 Level Shifting         CNVShift        .... on
   Level shift para.    LevelShift      ....    0.2500
   Turn off err/grad.   ShiftErr        ....    0.0010
 Zerner damping         CNVZerner       .... off
 Static damping         CNVDamp         .... on
   Fraction old density DampFac         ....    0.7000
   Max. Damping (<1)    DampMax         ....    0.9800
   Min. Damping (>=0)   DampMin         ....    0.0000
   Turn off err/grad.   DampErr         ....    0.1000
 Fernandez-Rico         CNVRico         .... off

SCF Procedure:
 Maximum # iterations   MaxIter         ....   250
 SCF integral mode      SCFMode         .... Direct
   Integral package                     .... LIBINT
 Reset frequency        DirectResetFreq ....    20
 Integral Threshold     Thresh          ....  2.500e-11 Eh
 Primitive CutOff       TCut            ....  2.500e-12 Eh

Convergence Tolerance:
 Convergence Check Mode ConvCheckMode   .... Total+1el-Energy
 Convergence forced     ConvForced      .... 0
 Energy Change          TolE            ....  1.000e-08 Eh
 1-El. energy change                    ....  1.000e-05 Eh
 Orbital Gradient       TolG            ....  1.000e-05
 Orbital Rotation angle TolX            ....  1.000e-05
 DIIS Error             TolErr          ....  5.000e-07


Diagonalization of the overlap matrix:
Smallest eigenvalue                        ... 5.260e-04
Time for diagonalization                   ...    0.029 sec
Threshold for overlap eigenvalues          ... 1.000e-08
Number of eigenvalues below threshold      ... 0
Time for construction of square roots      ...    0.016 sec
Total time needed                          ...    0.046 sec

--------------------------------
INITIAL GUESS: MINIMAL BASIS EHT
--------------------------------
The minimal basis has 92 functions
EHT matrix was diagonalized
Basis set overlap was calculated now projecting the orbitals
Using GuessMode=FMatrix for the initial guess
C*T matrix was formed
Effective Fockian was calculated
Effective Fockian was diagonalized
Initial density was built
                      ------------------
                      INITIAL GUESS DONE
                      ------------------
-------------------
DFT GRID GENERATION
-------------------

General Integration Accuracy     IntAcc      ...  5.340
Radial Grid Type                 RadialGrid  ... Gauss-Chebyshev
Angular Grid (max. acc.)         AngularGrid ... Lebedev-590
Angular grid pruning method      GridPruning ... 3 (G Style)
Weight generation scheme         WeightScheme... Becke
Basis function cutoff            BFCut       ...    1.0000e-11
Integration weight cutoff        WCut        ...    1.0000e-14
Grids for H and He will be reduced by one unit

# of grid points (after initial pruning)     ... 392920 (   0.0 sec)
# of grid points (after weights+screening)   ... 347241 (   1.3 sec)
nearest neighbour list constructed           ...    0.0 sec
Grid point re-assignment to atoms done       ...    0.2 sec
[nv81:17234] 5 more processes have sent help message help-opal-shmem-mmap.txt / sys call fail
[nv81:17234] Set MCA parameter "orte_base_help_aggregate" to 0 to see all help / error messages
Grid point division into batches done        ...    5.9 sec
Reduced shell lists constructed in    6.7 sec

Total number of grid points                  ...   347241
Total number of batches                      ...     5440
Average number of points per batch           ...       63
Average number of grid points per atom       ...    12401
Average number of shells per batch           ...    63.86 (48.38%)
Average number of basis functions per batch  ...   130.49 (51.37%)
Average number of large shells per batch     ...    43.84 (68.65%)
Average number of large basis fcns per batch ...    89.81 (68.83%)
Maximum spatial batch extension              ...  15.78, 12.53, 11.58 au
Average spatial batch extension              ...   0.18,  0.18,  0.18 au

Time for grid setup =   11.065 sec


--------------------
CPCM SOLVATION MODEL
--------------------
CPCM parameters:
  Epsilon                                         ...       2.4000
  Refrac                                          ...       1.4970
  Rsolv                                           ...       1.3000
  Surface type                                    ...    GEPOL SES
  Epsilon function type                           ...         CPCM
Radii:
 Radius for C  used is    3.7795 Bohr (=   2.0000 Ang.)
 Radius for O  used is    3.2503 Bohr (=   1.7200 Ang.)
 Radius for H  used is    2.4566 Bohr (=   1.3000 Ang.)
 Radius for P  used is    3.9798 Bohr (=   2.1060 Ang.)
 Radius for F  used is    3.2503 Bohr (=   1.7200 Ang.)
Calculating surface                               ...        done! (  0.1s)
GEPOL surface points                              ...          975
GEPOL Volume                                      ...    1775.3194
GEPOL Surface-area                                ...     916.6986
Calculating surface distance matrix               ...        done! (  0.0s)
Performing Cholesky decomposition & store         ...        done! (  0.2s)
Overall time for CPCM initialization              ...                 0.4s
--------------
SCF ITERATIONS
--------------
ITER       Energy         Delta-E        Max-DP      RMS-DP      [F,P]     Damp
               ***  Starting incremental Fock matrix formation  ***
  0  -1038.4696112181   0.000000000000 0.52074149  0.00814749  0.7279507 0.7000
  1  -1039.4990507929  -1.029439574832 0.20973027  0.00424429  0.3184384 0.7000
  2  -1040.0045323502  -0.505481557296 0.12386893  0.00279077  0.2256065 0.7000
                               ***Turning on DIIS***
  3  -1040.3868574724  -0.382325122216 0.09715974  0.00203286  0.1563661 0.7000
  4  -1040.6625078218  -0.275650349396 0.07140574  0.00148633  0.1068946 0.7000
  5  -1040.8568818764  -0.194374054560 0.15929052  0.00364080  0.0736365 0.0000
  6  -1041.3278668307  -0.470984954359 0.01854106  0.00037950  0.0085970 0.0000
  7  -1041.3301590274  -0.002292196695 0.02025567  0.00026774  0.0072486 0.0000
  8  -1041.3314201193  -0.001261091856 0.02457126  0.00030430  0.0047223 0.0000
  9  -1041.3323911079  -0.000970988564 0.01621302  0.00021270  0.0032388 0.0000
 10  -1041.3329639938  -0.000572885891 0.01182025  0.00016279  0.0027753 0.0000
 11  -1041.3333059139  -0.000341920126 0.01232872  0.00015128  0.0017155 0.0000
 12  -1041.3335212206  -0.000215306748 0.00637071  0.00009736  0.0017657 0.0000
 13  -1041.3336434602  -0.000122239572 0.01480591  0.00023419  0.0008706 0.0000
                      *** Initiating the SOSCF procedure ***
                           *** Shutting down DIIS ***
                      *** Re-Reading the Fockian *** 
                      *** Removing any level shift *** 
ITER      Energy       Delta-E        Grad      Rot      Max-DP    RMS-DP
 14  -1041.33378513  -0.0001416722  0.000324  0.000324  0.002377  0.000031
               *** Restarting incremental Fock matrix formation ***
 15  -1041.33379094  -0.0000058076  0.000179  0.001423  0.000546  0.000013
 16  -1041.33379205  -0.0000011081  0.000164  0.001289  0.000892  0.000015
 17  -1041.33379281  -0.0000007640  0.000058  0.000459  0.000435  0.000006
 18  -1041.33379275   0.0000000629  0.000075  0.000280  0.000234  0.000004
 19  -1041.33379295  -0.0000002054  0.000008  0.000059  0.000051  0.000001
 20  -1041.33379295  -0.0000000002  0.000008  0.000020  0.000033  0.000000
                  ***Gradient check signals convergence***
              ***Rediagonalizing the Fockian in SOSCF/NRSCF***

               *****************************************************
               *                     SUCCESS                       *
               *           SCF CONVERGED AFTER  21 CYCLES          *
               *****************************************************


----------------
TOTAL SCF ENERGY
----------------

Total Energy       :        -1041.33379296 Eh          -28336.13309 eV

Components:
Nuclear Repulsion  :         1090.51740657 Eh           29674.48725 eV
Electronic Energy  :        -2131.85119952 Eh          -58010.62034 eV
One Electron Energy:        -3596.32979133 Eh          -97861.10878 eV
Two Electron Energy:         1464.47859181 Eh           39850.48844 eV
CPCM Dielectric    :           -0.01036093 Eh              -0.28194 eV

Virial components:
Potential Energy   :        -2076.97067386 Eh          -56517.24532 eV
Kinetic Energy     :         1035.63688090 Eh           28181.11223 eV
Virial Ratio       :            2.00550088


DFT components:
N(Alpha)           :       59.999989195200 electrons
N(Beta)            :       59.999989195200 electrons
N(Total)           :      119.999978390399 electrons
E(X)               :      -62.934609275257 Eh       
E(C)               :       -5.403786448670 Eh       
E(XC)              :      -68.338395723927 Eh       
DFET-embed. en.    :        0.000000000000 Eh       
CPCM Solvation Model Properties:
Surface-charge          :           -0.02111422
Charge-correction       :           -0.00004909 Eh              -0.00134 eV
Free-energy (cav+disp)  :            0.00487214 Eh               0.13258 eV
Corrected G(solv)       :        -1041.32896991 Eh          -28336.00185 eV

---------------
SCF CONVERGENCE
---------------

  Last Energy change         ...   -1.3283e-09  Tolerance :   1.0000e-08
  Last MAX-Density change    ...    1.8728e-05  Tolerance :   1.0000e-07
  Last RMS-Density change    ...    2.2084e-07  Tolerance :   5.0000e-09
  Last Orbital Gradient      ...    1.4427e-06  Tolerance :   1.0000e-05
  Last Orbital Rotation      ...    1.2728e-05  Tolerance :   1.0000e-05

             **** THE GBW FILE WAS UPDATED (oxa-CO_TSpbe.gbw) ****
             **** DENSITY FILE WAS UPDATED (oxa-CO_TSpbe.scfp) ****
             **** ENERGY FILE WAS UPDATED (oxa-CO_TSpbe.en.tmp) ****
             **** THE GBW FILE WAS UPDATED (oxa-CO_TSpbe.gbw) ****
             **** DENSITY FILE WAS UPDATED (oxa-CO_TSpbe.scfp) ****
----------------
ORBITAL ENERGIES
----------------

  NO   OCC          E(Eh)            E(eV) 
   0   2.0000     -77.767957     -2116.1737 
   1   2.0000     -25.133865      -683.9272 
   2   2.0000     -25.132623      -683.8934 
   3   2.0000     -19.464038      -529.6434 
   4   2.0000     -10.571119      -287.6548 
   5   2.0000     -10.570637      -287.6417 
   6   2.0000     -10.519089      -286.2390 
   7   2.0000     -10.505463      -285.8682 
   8   2.0000     -10.493639      -285.5464 
   9   2.0000     -10.490406      -285.4585 
  10   2.0000     -10.487578      -285.3815 
  11   2.0000     -10.458994      -284.6037 
  12   2.0000     -10.429586      -283.8035 
  13   2.0000     -10.426679      -283.7244 
  14   2.0000     -10.426175      -283.7106 
  15   2.0000      -6.833875      -185.9592 
  16   2.0000      -4.925448      -134.0283 
  17   2.0000      -4.924790      -134.0104 
  18   2.0000      -4.923177      -133.9665 
  19   2.0000      -1.374642       -37.4059 
  20   2.0000      -1.373370       -37.3713 
  21   2.0000      -1.059752       -28.8373 
  22   2.0000      -1.008729       -27.4489 
  23   2.0000      -0.914442       -24.8832 
  24   2.0000      -0.903345       -24.5813 
  25   2.0000      -0.879181       -23.9237 
  26   2.0000      -0.809795       -22.0356 
  27   2.0000      -0.770545       -20.9676 
  28   2.0000      -0.768016       -20.8988 
  29   2.0000      -0.734839       -19.9960 
  30   2.0000      -0.715381       -19.4665 
  31   2.0000      -0.666967       -18.1491 
  32   2.0000      -0.636367       -17.3164 
  33   2.0000      -0.623983       -16.9794 
  34   2.0000      -0.599495       -16.3131 
  35   2.0000      -0.594121       -16.1668 
  36   2.0000      -0.572068       -15.5668 
  37   2.0000      -0.568802       -15.4779 
  38   2.0000      -0.558314       -15.1925 
  39   2.0000      -0.533560       -14.5189 
  40   2.0000      -0.525927       -14.3112 
  41   2.0000      -0.517638       -14.0856 
  42   2.0000      -0.497255       -13.5310 
  43   2.0000      -0.496841       -13.5197 
  44   2.0000      -0.483622       -13.1600 
  45   2.0000      -0.464661       -12.6441 
  46   2.0000      -0.462532       -12.5861 
  47   2.0000      -0.451924       -12.2975 
  48   2.0000      -0.450648       -12.2628 
  49   2.0000      -0.439993       -11.9728 
  50   2.0000      -0.422990       -11.5101 
  51   2.0000      -0.418230       -11.3806 
  52   2.0000      -0.397082       -10.8051 
  53   2.0000      -0.386497       -10.5171 
  54   2.0000      -0.382209       -10.4004 
  55   2.0000      -0.370100       -10.0709 
  56   2.0000      -0.353524        -9.6199 
  57   2.0000      -0.320196        -8.7130 
  58   2.0000      -0.301875        -8.2144 
  59   2.0000      -0.245173        -6.6715 
  60   0.0000      -0.119250        -3.2450 
  61   0.0000      -0.003091        -0.0841 
  62   0.0000       0.018909         0.5145 
  63   0.0000       0.066345         1.8053 
  64   0.0000       0.107047         2.9129 
  65   0.0000       0.124543         3.3890 
  66   0.0000       0.136905         3.7254 
  67   0.0000       0.147659         4.0180 
  68   0.0000       0.172593         4.6965 
  69   0.0000       0.178680         4.8621 
  70   0.0000       0.188148         5.1198 
  71   0.0000       0.189844         5.1659 
  72   0.0000       0.195679         5.3247 
  73   0.0000       0.201171         5.4741 
  74   0.0000       0.210209         5.7201 
  75   0.0000       0.219149         5.9633 
  76   0.0000       0.227715         6.1964 
  77   0.0000       0.228322         6.2130 
  78   0.0000       0.233262         6.3474 
  79   0.0000       0.239243         6.5101 
  80   0.0000       0.242671         6.6034 
  81   0.0000       0.254510         6.9256 
  82   0.0000       0.264971         7.2102 
  83   0.0000       0.279112         7.5950 
  84   0.0000       0.281844         7.6694 
  85   0.0000       0.297836         8.1045 
  86   0.0000       0.308138         8.3849 
  87   0.0000       0.335821         9.1382 
  88   0.0000       0.372755        10.1432 
  89   0.0000       0.395852        10.7717 
  90   0.0000       0.414563        11.2808 
  91   0.0000       0.439267        11.9531 
  92   0.0000       0.470865        12.8129 
  93   0.0000       0.487594        13.2681 
  94   0.0000       0.498989        13.5782 
  95   0.0000       0.515452        14.0262 
  96   0.0000       0.516654        14.0589 
  97   0.0000       0.518911        14.1203 
  98   0.0000       0.528011        14.3679 
  99   0.0000       0.540393        14.7049 
 100   0.0000       0.542049        14.7499 
 101   0.0000       0.551835        15.0162 
 102   0.0000       0.558144        15.1879 
 103   0.0000       0.562391        15.3034 
 104   0.0000       0.577317        15.7096 
 105   0.0000       0.588165        16.0048 
 106   0.0000       0.596391        16.2286 
 107   0.0000       0.598222        16.2785 
 108   0.0000       0.614977        16.7344 
 109   0.0000       0.622420        16.9369 
 110   0.0000       0.642725        17.4894 
 111   0.0000       0.657554        17.8929 
 112   0.0000       0.673096        18.3159 
 113   0.0000       0.681094        18.5335 
 114   0.0000       0.682531        18.5726 
 115   0.0000       0.699385        19.0312 
 116   0.0000       0.707623        19.2554 
 117   0.0000       0.716070        19.4853 
 118   0.0000       0.724504        19.7148 
 119   0.0000       0.736984        20.0544 
 120   0.0000       0.767077        20.8732 
 121   0.0000       0.777881        21.1672 
 122   0.0000       0.790509        21.5109 
 123   0.0000       0.805607        21.9217 
 124   0.0000       0.818069        22.2608 
 125   0.0000       0.863469        23.4962 
 126   0.0000       0.894297        24.3351 
 127   0.0000       0.899351        24.4726 
 128   0.0000       0.908111        24.7110 
 129   0.0000       0.928703        25.2713 
 130   0.0000       0.936782        25.4911 
 131   0.0000       0.950993        25.8778 
 132   0.0000       0.972084        26.4517 
 133   0.0000       0.978987        26.6396 
 134   0.0000       0.998237        27.1634 
 135   0.0000       1.000951        27.2373 
 136   0.0000       1.019986        27.7552 
 137   0.0000       1.028211        27.9790 
 138   0.0000       1.035588        28.1798 
 139   0.0000       1.037507        28.2320 
 140   0.0000       1.044437        28.4206 
 141   0.0000       1.053339        28.6628 
 142   0.0000       1.062965        28.9248 
 143   0.0000       1.075230        29.2585 
 144   0.0000       1.078361        29.3437 
 145   0.0000       1.085548        29.5393 
 146   0.0000       1.094821        29.7916 
 147   0.0000       1.107282        30.1307 
 148   0.0000       1.123996        30.5855 
 149   0.0000       1.132778        30.8245 
 150   0.0000       1.144858        31.1532 
 151   0.0000       1.157869        31.5072 
 152   0.0000       1.164682        31.6926 
 153   0.0000       1.171391        31.8752 
 154   0.0000       1.179407        32.0933 
 155   0.0000       1.189632        32.3715 
 156   0.0000       1.200920        32.6787 
 157   0.0000       1.213266        33.0147 
 158   0.0000       1.225744        33.3542 
 159   0.0000       1.231876        33.5211 
 160   0.0000       1.262674        34.3591 
 161   0.0000       1.275379        34.7048 
 162   0.0000       1.281603        34.8742 
 163   0.0000       1.287368        35.0311 
 164   0.0000       1.308547        35.6074 
 165   0.0000       1.337374        36.3918 
 166   0.0000       1.348962        36.7071 
 167   0.0000       1.372723        37.3537 
 168   0.0000       1.380116        37.5549 
 169   0.0000       1.414057        38.4785 
 170   0.0000       1.454033        39.5662 
 171   0.0000       1.467468        39.9318 
 172   0.0000       1.487399        40.4742 
 173   0.0000       1.499871        40.8136 
 174   0.0000       1.505914        40.9780 
 175   0.0000       1.508067        41.0366 
 176   0.0000       1.531404        41.6716 
 177   0.0000       1.532935        41.7133 
 178   0.0000       1.552306        42.2404 
 179   0.0000       1.700898        46.2838 
 180   0.0000       1.743812        47.4515 
 181   0.0000       1.793516        48.8041 
 182   0.0000       1.803136        49.0658 
 183   0.0000       1.822816        49.6014 
 184   0.0000       1.826294        49.6960 
 185   0.0000       1.864020        50.7226 
 186   0.0000       1.867799        50.8254 
 187   0.0000       1.894151        51.5425 
 188   0.0000       1.900610        51.7182 
 189   0.0000       1.912073        52.0301 
 190   0.0000       1.929408        52.5019 
 191   0.0000       1.944952        52.9248 
 192   0.0000       1.958668        53.2981 
 193   0.0000       1.963967        53.4423 
 194   0.0000       1.966403        53.5085 
 195   0.0000       1.994960        54.2856 
 196   0.0000       2.018122        54.9159 
 197   0.0000       2.025093        55.1056 
 198   0.0000       2.047593        55.7178 
 199   0.0000       2.056717        55.9661 
 200   0.0000       2.072139        56.3858 
 201   0.0000       2.106201        57.3126 
 202   0.0000       2.109978        57.4154 
 203   0.0000       2.132493        58.0281 
 204   0.0000       2.145568        58.3839 
 205   0.0000       2.159178        58.7542 
 206   0.0000       2.186515        59.4981 
 207   0.0000       2.196290        59.7641 
 208   0.0000       2.211033        60.1653 
 209   0.0000       2.222589        60.4797 
 210   0.0000       2.278300        61.9957 
 211   0.0000       2.301436        62.6253 
 212   0.0000       2.324275        63.2467 
 213   0.0000       2.329058        63.3769 
 214   0.0000       2.336871        63.5895 
 215   0.0000       2.342664        63.7471 
 216   0.0000       2.350138        63.9505 
 217   0.0000       2.355819        64.1051 
 218   0.0000       2.377317        64.6901 
 219   0.0000       2.386799        64.9481 
 220   0.0000       2.491830        67.8061 
 221   0.0000       2.522469        68.6399 
 222   0.0000       2.534337        68.9628 
 223   0.0000       2.584534        70.3288 
 224   0.0000       2.598616        70.7119 
 225   0.0000       2.604129        70.8620 
 226   0.0000       2.611509        71.0628 
 227   0.0000       2.691895        73.2502 
 228   0.0000       2.698019        73.4168 
 229   0.0000       2.728043        74.2338 
 230   0.0000       2.733070        74.3706 
 231   0.0000       2.742409        74.6247 
 232   0.0000       2.790341        75.9290 
 233   0.0000       2.836835        77.1942 
 234   0.0000       2.959352        80.5281 
 235   0.0000       3.008942        81.8775 
 236   0.0000       3.036896        82.6381 
 237   0.0000       3.134070        85.2824 
 238   0.0000       3.190912        86.8291 
 239   0.0000       3.436411        93.5095 
 240   0.0000      13.238476       360.2373 
 241   0.0000      13.590012       369.8030 
 242   0.0000      13.631443       370.9304 
 243   0.0000      13.714072       373.1789 
 244   0.0000      13.870493       377.4353 
 245   0.0000      13.884557       377.8180 
 246   0.0000      13.920946       378.8082 
 247   0.0000      14.101779       383.7289 
 248   0.0000      14.150570       385.0566 
 249   0.0000      14.183247       385.9458 
 250   0.0000      14.460652       393.4943 
 251   0.0000      25.618753       697.1217 
 252   0.0000      32.855483       894.0432 
 253   0.0000      32.923164       895.8848 

                    ********************************
                    * MULLIKEN POPULATION ANALYSIS *
                    ********************************

-----------------------
MULLIKEN ATOMIC CHARGES
-----------------------
   0 C :   -0.434117
   1 O :   -0.639520
   2 H :    0.302556
   3 P :    0.710449
   4 C :   -0.311826
   5 C :   -0.650663
   6 H :    0.231840
   7 H :    0.230539
   8 H :    0.240851
   9 C :   -0.635359
  10 H :    0.219354
  11 H :    0.229407
  12 H :    0.238342
  13 C :   -0.640915
  14 H :    0.230781
  15 H :    0.232652
  16 H :    0.225524
  17 C :    0.178460
  18 C :   -0.432663
  19 C :   -0.446245
  20 C :    0.570010
  21 H :    0.290276
  22 C :    0.583814
  23 H :    0.293634
  24 C :   -0.524002
  25 H :    0.311126
  26 F :   -0.302218
  27 F :   -0.302087
Sum of atomic charges:   -0.0000000

--------------------------------
MULLIKEN REDUCED ORBITAL CHARGES
--------------------------------
  0 C s       :     3.472954  s :     3.472954
      pz      :     0.967611  p :     2.927196
      px      :     1.220010
      py      :     0.739574
      dz2     :     0.008811  d :     0.033967
      dxz     :     0.010767
      dyz     :     0.007622
      dx2y2   :     0.002392
      dxy     :     0.004375
  1 O s       :     3.856189  s :     3.856189
      pz      :     1.669697  p :     4.762200
      px      :     1.499411
      py      :     1.593092
      dz2     :     0.003260  d :     0.021131
      dxz     :     0.004276
      dyz     :     0.002750
      dx2y2   :     0.005284
      dxy     :     0.005563
  2 H s       :     0.697444  s :     0.697444
  3 P s       :     5.574069  s :     5.574069
      pz      :     2.781703  p :     8.403206
      px      :     2.803337
      py      :     2.818166
      dz2     :     0.035071  d :     0.312276
      dxz     :     0.067093
      dyz     :     0.066834
      dx2y2   :     0.063128
      dxy     :     0.080150
  4 C s       :     3.307029  s :     3.307029
      pz      :     0.993244  p :     2.956918
      px      :     0.981981
      py      :     0.981692
      dz2     :     0.005866  d :     0.047880
      dxz     :     0.010984
      dyz     :     0.012656
      dx2y2   :     0.006507
      dxy     :     0.011867
  5 C s       :     3.383004  s :     3.383004
      pz      :     1.034086  p :     3.230572
      px      :     1.108803
      py      :     1.087683
      dz2     :     0.003702  d :     0.037088
      dxz     :     0.009571
      dyz     :     0.010591
      dx2y2   :     0.001336
      dxy     :     0.011888
  6 H s       :     0.768160  s :     0.768160
  7 H s       :     0.769461  s :     0.769461
  8 H s       :     0.759149  s :     0.759149
  9 C s       :     3.379270  s :     3.379270
      pz      :     1.108007  p :     3.218891
      px      :     1.060626
      py      :     1.050258
      dz2     :     0.003248  d :     0.037198
      dxz     :     0.007908
      dyz     :     0.012291
      dx2y2   :     0.003876
      dxy     :     0.009876
 10 H s       :     0.780646  s :     0.780646
 11 H s       :     0.770593  s :     0.770593
 12 H s       :     0.761658  s :     0.761658
 13 C s       :     3.379756  s :     3.379756
      pz      :     1.095356  p :     3.224015
      px      :     1.038344
      py      :     1.090316
      dz2     :     0.003058  d :     0.037143
      dxz     :     0.009210
      dyz     :     0.011405
      dx2y2   :     0.002140
      dxy     :     0.011331
 14 H s       :     0.769219  s :     0.769219
 15 H s       :     0.767348  s :     0.767348
 16 H s       :     0.774476  s :     0.774476
 17 C s       :     3.174839  s :     3.174839
      pz      :     0.780590  p :     2.599563
      px      :     0.866109
      py      :     0.952864
      dz2     :     0.012497  d :     0.047138
      dxz     :     0.013997
      dyz     :     0.006451
      dx2y2   :     0.007639
      dxy     :     0.006555
 18 C s       :     3.338356  s :     3.338356
      pz      :     1.027723  p :     3.056411
      px      :     1.011919
      py      :     1.016769
      dz2     :     0.010108  d :     0.037896
      dxz     :     0.010363
      dyz     :     0.007638
      dx2y2   :     0.004045
      dxy     :     0.005743
 19 C s       :     3.353569  s :     3.353569
      pz      :     0.974967  p :     3.054933
      px      :     1.044710
      py      :     1.035256
      dz2     :     0.011155  d :     0.037743
      dxz     :     0.009333
      dyz     :     0.007715
      dx2y2   :     0.003358
      dxy     :     0.006182
 20 C s       :     2.989803  s :     2.989803
      pz      :     0.761081  p :     2.357927
      px      :     0.728237
      py      :     0.868608
      dz2     :     0.017835  d :     0.082260
      dxz     :     0.021888
      dyz     :     0.014301
      dx2y2   :     0.014072
      dxy     :     0.014164
 21 H s       :     0.709724  s :     0.709724
 22 C s       :     2.987840  s :     2.987840
      pz      :     0.711261  p :     2.345988
      px      :     0.766801
      py      :     0.867927
      dz2     :     0.018700  d :     0.082357
      dxz     :     0.023969
      dyz     :     0.017055
      dx2y2   :     0.011556
      dxy     :     0.011078
 23 H s       :     0.706366  s :     0.706366
 24 C s       :     3.361180  s :     3.361180
      pz      :     1.124481  p :     3.126064
      px      :     0.996505
      py      :     1.005078
      dz2     :     0.009785  d :     0.036758
      dxz     :     0.008990
      dyz     :     0.005627
      dx2y2   :     0.006411
      dxy     :     0.005945
 25 H s       :     0.688874  s :     0.688874
 26 F s       :     3.900226  s :     3.900226
      pz      :     1.765221  p :     5.372897
      px      :     1.766801
      py      :     1.840875
      dz2     :     0.006349  d :     0.029095
      dxz     :     0.007288
      dyz     :     0.005357
      dx2y2   :     0.004889
      dxy     :     0.005213
 27 F s       :     3.900035  s :     3.900035
      pz      :     1.892756  p :     5.373002
      px      :     1.661452
      py      :     1.818794
      dz2     :     0.003940  d :     0.029050
      dxz     :     0.006691
      dyz     :     0.003288
      dx2y2   :     0.007326
      dxy     :     0.007804


                     *******************************
                     * LOEWDIN POPULATION ANALYSIS *
                     *******************************

----------------------
LOEWDIN ATOMIC CHARGES
----------------------
   0 C :   -0.122986
   1 O :   -0.512415
   2 H :    0.167210
   3 P :    0.490423
   4 C :   -0.230825
   5 C :   -0.362858
   6 H :    0.133148
   7 H :    0.131952
   8 H :    0.136803
   9 C :   -0.358485
  10 H :    0.126544
  11 H :    0.131277
  12 H :    0.134861
  13 C :   -0.360218
  14 H :    0.132180
  15 H :    0.133889
  16 H :    0.129476
  17 C :   -0.070285
  18 C :   -0.122932
  19 C :   -0.124964
  20 C :    0.160246
  21 H :    0.174211
  22 C :    0.162229
  23 H :    0.175427
  24 C :   -0.140033
  25 H :    0.184287
  26 F :   -0.148797
  27 F :   -0.149364

-------------------------------
LOEWDIN REDUCED ORBITAL CHARGES
-------------------------------
  0 C s       :     3.024649  s :     3.024649
      pz      :     1.082553  p :     3.029506
      px      :     1.183514
      py      :     0.763439
      dz2     :     0.020461  d :     0.068831
      dxz     :     0.022140
      dyz     :     0.015216
      dx2y2   :     0.003515
      dxy     :     0.007499
  1 O s       :     3.653921  s :     3.653921
      pz      :     1.680006  p :     4.823666
      px      :     1.551322
      py      :     1.592337
      dz2     :     0.004458  d :     0.034829
      dxz     :     0.008200
      dyz     :     0.004401
      dx2y2   :     0.008686
      dxy     :     0.009083
  2 H s       :     0.832790  s :     0.832790
  3 P s       :     5.315801  s :     5.315801
      pz      :     2.854739  p :     8.729481
      px      :     2.950328
      py      :     2.924414
      dz2     :     0.048500  d :     0.464295
      dxz     :     0.102339
      dyz     :     0.098960
      dx2y2   :     0.088165
      dxy     :     0.126332
  4 C s       :     2.896469  s :     2.896469
      pz      :     1.076896  p :     3.225553
      px      :     1.070513
      py      :     1.078143
      dz2     :     0.012368  d :     0.108804
      dxz     :     0.025028
      dyz     :     0.030381
      dx2y2   :     0.013542
      dxy     :     0.027484
  5 C s       :     2.957193  s :     2.957193
      pz      :     1.096909  p :     3.335934
      px      :     1.122993
      py      :     1.116032
      dz2     :     0.008294  d :     0.069731
      dxz     :     0.017926
      dyz     :     0.020098
      dx2y2   :     0.002737
      dxy     :     0.020676
  6 H s       :     0.866852  s :     0.866852
  7 H s       :     0.868048  s :     0.868048
  8 H s       :     0.863197  s :     0.863197
  9 C s       :     2.954291  s :     2.954291
      pz      :     1.124597  p :     3.333682
      px      :     1.107862
      py      :     1.101224
      dz2     :     0.006361  d :     0.070512
      dxz     :     0.014483
      dyz     :     0.022344
      dx2y2   :     0.008255
      dxy     :     0.019069
 10 H s       :     0.873456  s :     0.873456
 11 H s       :     0.868723  s :     0.868723
 12 H s       :     0.865139  s :     0.865139
 13 C s       :     2.954076  s :     2.954076
      pz      :     1.117838  p :     3.335801
      px      :     1.099195
      py      :     1.118768
      dz2     :     0.006299  d :     0.070341
      dxz     :     0.017327
      dyz     :     0.020137
      dx2y2   :     0.004964
      dxy     :     0.021614
 14 H s       :     0.867820  s :     0.867820
 15 H s       :     0.866111  s :     0.866111
 16 H s       :     0.870524  s :     0.870524
 17 C s       :     2.838881  s :     2.838881
      pz      :     1.067468  p :     3.114868
      px      :     1.043826
      py      :     1.003573
      dz2     :     0.033357  d :     0.116537
      dxz     :     0.036029
      dyz     :     0.015649
      dx2y2   :     0.016197
      dxy     :     0.015304
 18 C s       :     2.898488  s :     2.898488
      pz      :     1.072898  p :     3.139991
      px      :     1.044527
      py      :     1.022566
      dz2     :     0.025788  d :     0.084453
      dxz     :     0.024138
      dyz     :     0.015773
      dx2y2   :     0.007771
      dxy     :     0.010984
 19 C s       :     2.898696  s :     2.898696
      pz      :     1.063299  p :     3.142325
      px      :     1.051977
      py      :     1.027049
      dz2     :     0.027959  d :     0.083943
      dxz     :     0.022958
      dyz     :     0.017063
      dx2y2   :     0.005499
      dxy     :     0.010464
 20 C s       :     2.811114  s :     2.811114
      pz      :     1.059118  p :     2.828861
      px      :     0.857636
      py      :     0.912107
      dz2     :     0.044913  d :     0.199779
      dxz     :     0.054625
      dyz     :     0.033215
      dx2y2   :     0.032002
      dxy     :     0.035025
 21 H s       :     0.825789  s :     0.825789
 22 C s       :     2.811014  s :     2.811014
      pz      :     0.976469  p :     2.826816
      px      :     0.926362
      py      :     0.923984
      dz2     :     0.051023  d :     0.199941
      dxz     :     0.056000
      dyz     :     0.038831
      dx2y2   :     0.025974
      dxy     :     0.028112
 23 H s       :     0.824573  s :     0.824573
 24 C s       :     2.905300  s :     2.905300
      pz      :     1.100415  p :     3.153213
      px      :     1.041692
      py      :     1.011105
      dz2     :     0.020309  d :     0.081521
      dxz     :     0.022348
      dyz     :     0.011862
      dx2y2   :     0.013169
      dxy     :     0.013833
 25 H s       :     0.815713  s :     0.815713
 26 F s       :     3.701118  s :     3.701118
      pz      :     1.763179  p :     5.365273
      px      :     1.766860
      py      :     1.835234
      dz2     :     0.018929  d :     0.082406
      dxz     :     0.019496
      dyz     :     0.014925
      dx2y2   :     0.014352
      dxy     :     0.014704
 27 F s       :     3.701198  s :     3.701198
      pz      :     1.874532  p :     5.365748
      px      :     1.675254
      py      :     1.815963
      dz2     :     0.011580  d :     0.082418
      dxz     :     0.018832
      dyz     :     0.009352
      dx2y2   :     0.021353
      dxy     :     0.021302


                      *****************************
                      * MAYER POPULATION ANALYSIS *
                      *****************************

  NA   - Mulliken gross atomic population
  ZA   - Total nuclear charge
  QA   - Mulliken gross atomic charge
  VA   - Mayer's total valence
  BVA  - Mayer's bonded valence
  FA   - Mayer's free valence

  ATOM       NA         ZA         QA         VA         BVA        FA
  0 C      6.4341     6.0000    -0.4341     3.4697     3.4697    -0.0000
  1 O      8.6395     8.0000    -0.6395     1.9719     1.9719    -0.0000
  2 H      0.6974     1.0000     0.3026     0.8805     0.8805    -0.0000
  3 P     14.2896    15.0000     0.7104     3.2934     3.2934    -0.0000
  4 C      6.3118     6.0000    -0.3118     3.7441     3.7441    -0.0000
  5 C      6.6507     6.0000    -0.6507     3.6637     3.6637    -0.0000
  6 H      0.7682     1.0000     0.2318     0.9124     0.9124    -0.0000
  7 H      0.7695     1.0000     0.2305     0.9110     0.9110    -0.0000
  8 H      0.7591     1.0000     0.2409     0.9095     0.9095    -0.0000
  9 C      6.6354     6.0000    -0.6354     3.6618     3.6618    -0.0000
 10 H      0.7806     1.0000     0.2194     0.9156     0.9156    -0.0000
 11 H      0.7706     1.0000     0.2294     0.9119     0.9119     0.0000
 12 H      0.7617     1.0000     0.2383     0.9140     0.9140    -0.0000
 13 C      6.6409     6.0000    -0.6409     3.6652     3.6652    -0.0000
 14 H      0.7692     1.0000     0.2308     0.9112     0.9112    -0.0000
 15 H      0.7673     1.0000     0.2327     0.9110     0.9110     0.0000
 16 H      0.7745     1.0000     0.2255     0.9122     0.9122    -0.0000
 17 C      5.8215     6.0000     0.1785     3.5853     3.5853    -0.0000
 18 C      6.4327     6.0000    -0.4327     3.7675     3.7675    -0.0000
 19 C      6.4462     6.0000    -0.4462     3.7521     3.7521    -0.0000
 20 C      5.4300     6.0000     0.5700     3.7505     3.7505    -0.0000
 21 H      0.7097     1.0000     0.2903     0.8901     0.8901    -0.0000
 22 C      5.4162     6.0000     0.5838     3.7367     3.7367    -0.0000
 23 H      0.7064     1.0000     0.2936     0.8990     0.8990     0.0000
 24 C      6.5240     6.0000    -0.5240     3.7524     3.7524    -0.0000
 25 H      0.6889     1.0000     0.3111     0.8802     0.8802     0.0000
 26 F      9.3022     9.0000    -0.3022     1.1211     1.1211    -0.0000
 27 F      9.3021     9.0000    -0.3021     1.1210     1.1210    -0.0000

  Mayer bond orders larger than 0.100000
B(  0-C ,  1-O ) :   0.4103 B(  0-C ,  2-H ) :   0.8696 B(  0-C ,  3-P ) :   1.0007 
B(  0-C , 17-C ) :   1.0911 B(  1-O ,  3-P ) :   1.3595 B(  3-P ,  4-C ) :   0.8412 
B(  4-C ,  5-C ) :   0.9645 B(  4-C ,  9-C ) :   0.9568 B(  4-C , 13-C ) :   0.9571 
B(  5-C ,  6-H ) :   0.9192 B(  5-C ,  7-H ) :   0.9213 B(  5-C ,  8-H ) :   0.9154 
B(  9-C , 10-H ) :   0.9260 B(  9-C , 11-H ) :   0.9217 B(  9-C , 12-H ) :   0.9142 
B( 13-C , 14-H ) :   0.9215 B( 13-C , 15-H ) :   0.9205 B( 13-C , 16-H ) :   0.9238 
B( 17-C , 18-C ) :   1.2559 B( 17-C , 19-C ) :   1.2644 B( 18-C , 20-C ) :   1.4206 
B( 18-C , 21-H ) :   0.8892 B( 19-C , 22-C ) :   1.4189 B( 19-C , 23-H ) :   0.8790 
B( 20-C , 24-C ) :   1.3358 B( 20-C , 27-F ) :   0.9662 B( 22-C , 24-C ) :   1.3265 
B( 22-C , 26-F ) :   0.9650 B( 24-C , 25-H ) :   0.8774 

-------
TIMINGS
-------

Total SCF time: 0 days 0 hours 2 min 39 sec 

Total time                  ....     159.394 sec
Sum of individual times     ....     157.378 sec  ( 98.7%)

Fock matrix formation       ....     144.877 sec  ( 90.9%)
  XC integration            ....      28.235 sec  ( 19.5% of F)
    Basis function eval.    ....       7.736 sec  ( 27.4% of XC)
    Density eval.           ....       7.228 sec  ( 25.6% of XC)
    XC-Functional eval.     ....       4.075 sec  ( 14.4% of XC)
    XC-Potential eval.      ....       4.416 sec  ( 15.6% of XC)
Diagonalization             ....       0.768 sec  (  0.5%)
Density matrix formation    ....       0.088 sec  (  0.1%)
Population analysis         ....       0.027 sec  (  0.0%)
Initial guess               ....       0.089 sec  (  0.1%)
Orbital Transformation      ....       0.000 sec  (  0.0%)
Orbital Orthonormalization  ....       0.000 sec  (  0.0%)
DIIS solution               ....       0.220 sec  (  0.1%)
SOSCF solution              ....       0.243 sec  (  0.2%)
Grid generation             ....      11.065 sec  (  6.9%)


-------------------------------------------------------------------------------
                          DFT DISPERSION CORRECTION                            
                                                                               
                              DFTD3 V3.1  Rev 1                                
                          USING Becke-Johnson damping                          
-------------------------------------------------------------------------------
The PBEh-3c composite method is recognized
Using three-body term ABC
Active option DFTDOPT                   ...         4   

molecular C6(AA) [au] = 9133.829926 


            DFT-D V3
 parameters
 s6 scaling factor         :     1.0000 
 a1 scaling factor         :     0.4860 
 s8 scaling factor         :     0.0000 
 a2 scaling factor         :     4.5000 
 Damping factor alpha9(ATM):    16.0000 
 ad hoc parameters k1-k3   :    16.0000     1.3333    -4.0000 

 Edisp/kcal,au: -11.725893919188  -0.018686399414 
 E6   /kcal   : -11.785078689 
 E8   /kcal   :  -0.000000000 
 E6(ABC)      :   0.059184770 
 % E8         :   0.000000000 
 % E6(ABC)    :  -0.504735676 

-------------------------   ----------------
Dispersion correction           -0.018686399
-------------------------   ----------------

------------------   -----------------
gCP correction             0.041774798
------------------   -----------------

-------------------------   --------------------
FINAL SINGLE POINT ENERGY     -1041.310704557182
-------------------------   --------------------



           ************************************************************
           *        Program running with 8 parallel MPI-processes     *
           *              working on a common directory               *
           ************************************************************
------------------------------------------------------------------------------
                         ORCA SCF GRADIENT CALCULATION
------------------------------------------------------------------------------

Gradient of the Kohn-Sham DFT energy:
Kohn-Sham wavefunction type      ... RKS
Hartree-Fock exchange scaling    ...    0.420
Number of operators              ...    1
Number of atoms                  ...   28
Basis set dimensions             ...  254
Integral neglect threshold       ... 2.5e-11
Integral primitive cutoff        ... 2.5e-12

Nuclear repulsion gradient       ... done
One Electron Gradient            ... done
Pre-screening matrix             ... done
Starting the two electron gradient:
Will do only exchange terms
Two electron gradient done
RI-J gradient                    ... done
Exchange-correlation gradient    ... done
Dispersion correction            ... done
gCP correction                   ... done

[...]
     17       0.058727   0.001882  -0.000107   0.000017   0.000003  -0.000022
     18      -0.024219   0.002498   0.000110  -0.000100   0.000134   0.000206
     19      -0.012196   0.004773  -0.000512  -0.000101   0.000041   0.000213
     20      -0.000935   0.004886   0.000060  -0.000123   0.000146   0.000243
     21       0.468124   0.015968  -0.001200  -0.000058   0.000130   0.000017
     22      -0.432251  -0.014222   0.001212   0.000053  -0.000123  -0.000049
     23      -0.314236  -0.010771   0.000849   0.000034  -0.000086  -0.000036
     24       0.415628   0.020491  -0.001351   0.000078  -0.000059  -0.000053
     25       0.399163   0.022007  -0.001173   0.000063  -0.000039  -0.000054
     26      -0.387883  -0.021044   0.001269  -0.000085   0.000030   0.000026
     27       0.001390  -0.021151   0.000341  -0.000048   0.000002   0.000055
     28       0.002842  -0.066795  -0.003169   0.000047  -0.000050  -0.000018
     29      -0.002521   0.060892   0.003560  -0.000069   0.000025   0.000025
     30       0.012778  -0.303874  -0.021200   0.000512  -0.000264  -0.000274
     31      -0.015069   0.377604   0.026900  -0.000609   0.000308   0.000341
     32       0.015855  -0.405082  -0.028449   0.000627  -0.000296  -0.000354
     33      -0.002733   0.027172  -0.002387   0.000135   0.000076  -0.000038
     34      -0.004188   0.021652  -0.002053   0.000055   0.000164   0.000145
     35      -0.004826   0.051846  -0.001763   0.000089   0.000153   0.000113
     36      -0.021487   0.531233   0.018379  -0.000129   0.000182  -0.000141
     37      -0.018351   0.398734   0.013649  -0.000104   0.000140  -0.000138
     38       0.016271  -0.377423  -0.012419   0.000085  -0.000144   0.000065
     39      -0.002528   0.001335   0.000031  -0.000084  -0.000008   0.000004
     40       0.002426  -0.000156  -0.000180   0.000073  -0.000012  -0.000029
     41      -0.000785   0.001187  -0.000110  -0.000084   0.000005   0.000025
     42       0.017437  -0.000197  -0.001122   0.000133   0.000028   0.000003
     43      -0.015276   0.000478   0.001117  -0.000085  -0.000035  -0.000050
     44      -0.015590  -0.000437   0.000697  -0.000156  -0.000047  -0.000035
     45       0.002007  -0.004560   0.000629   0.000216   0.000113   0.000156
     46       0.004139  -0.006280   0.000577   0.000176   0.000129   0.000184
     47       0.002405  -0.005516   0.000739   0.000224   0.000094   0.000094
     48       0.014135  -0.007868  -0.000091   0.000770  -0.000038  -0.000206
     49      -0.015348   0.010613   0.000254  -0.000921   0.000041   0.000242
     50       0.017896  -0.013628  -0.000686   0.000967  -0.000083  -0.000287
     51       0.000006  -0.000104   0.001462  -0.002146  -0.002400  -0.000114
     52       0.000016   0.000024   0.000109   0.001527   0.001644   0.000064
     53      -0.000023  -0.000172   0.003024   0.001689  -0.001188   0.000026
     54       0.000001   0.000048  -0.001477   0.001223   0.057881   0.004034
     55       0.000003  -0.000025   0.000915  -0.000941  -0.040545  -0.002852
     56       0.000019  -0.000047   0.001434  -0.001605  -0.052526  -0.003343
     57      -0.000011  -0.000012   0.001137   0.063357  -0.001931  -0.002044
     58       0.000009  -0.000008  -0.000799  -0.050131   0.001513   0.001612
     59       0.000005  -0.000003   0.001038   0.035082  -0.000738  -0.000857
     60      -0.000002  -0.000001   0.000062  -0.000049   0.000949  -0.003011
     61      -0.000006  -0.000004  -0.000031   0.000079  -0.000808   0.002149
     62      -0.000009   0.000014  -0.000347   0.000125   0.004472   0.002905
     63       0.000136  -0.000350   0.014199  -0.018144  -0.656389  -0.045234
     64      -0.000058   0.000198  -0.009671   0.013695   0.461369   0.031772
     65      -0.000111   0.000416  -0.015318   0.017048   0.585222   0.040046
     66      -0.000008   0.000001  -0.000084  -0.000081  -0.000225   0.003405
     67       0.000001   0.000009  -0.000077   0.000449   0.000137  -0.002487
     68       0.000003  -0.000011   0.000050  -0.004561   0.000162   0.001826
     69       0.000016   0.000137  -0.015145  -0.719427   0.018263   0.023081
     70       0.000004  -0.000192   0.012463   0.567796  -0.014580  -0.018138
     71      -0.000010  -0.000022  -0.007468  -0.387424   0.009533   0.012299
     72      -0.000002   0.000007  -0.000110  -0.000543   0.000236  -0.008468
     73       0.000002  -0.000004   0.000097   0.000383  -0.000107   0.005063
     74      -0.000002  -0.000000   0.000174  -0.002764   0.006217  -0.087736
     75       0.000008  -0.000006  -0.000272   0.002138  -0.006276   0.096110
     76       0.000007  -0.000016   0.000220  -0.002616   0.003979  -0.056310
     77       0.000032  -0.000060  -0.002001   0.029705  -0.068668   0.986924
     78       0.000003  -0.000001   0.000021  -0.000156  -0.000005  -0.000410
     79      -0.000002   0.000002  -0.000017   0.000114   0.000008   0.000298
     80      -0.000002   0.000003  -0.000031   0.000463   0.000004   0.000056
     81       0.000000   0.000002  -0.000035  -0.000054  -0.000297   0.000398
     82      -0.000000  -0.000001   0.000030   0.000036   0.000220  -0.000282
     83      -0.000000   0.000003  -0.000018  -0.000032  -0.000433  -0.000075


-----------
IR SPECTRUM
-----------

 Mode    freq (cm**-1)   T**2         TX         TY         TZ
-------------------------------------------------------------------
   7:        31.65    0.164675  (  0.247132  -0.244694  -0.209107)
   8:        44.35    1.351569  ( -0.949301   0.591015   0.317960)
   9:        56.70    0.639000  (  0.237059  -0.098065   0.757091)
  10:       106.00    4.474918  (  1.085968  -0.426334  -1.764605)
  11:       138.97    1.985365  ( -0.491024   1.318292  -0.079801)
  12:       206.02   16.144828  ( -0.493612  -0.851129  -3.895736)
  13:       227.08    0.224138  (  0.257515  -0.167053   0.360441)
  14:       239.29    2.003874  ( -0.930998  -0.431812  -0.975015)
  15:       243.89    0.642268  (  0.114994   0.575776  -0.545460)
  16:       264.33    0.207439  ( -0.105219   0.229181  -0.379267)
  17:       267.18    1.820976  ( -0.535784  -0.396722  -1.173253)
  18:       292.67    6.305468  (  0.929147   0.278807   2.316122)
  19:       302.92    3.733927  ( -1.196487   0.016330  -1.517260)
  20:       308.54   18.224318  (  1.954672  -0.774223   3.715394)
  21:       347.69   12.908388  ( -0.486366   0.170457  -3.555669)
  22:       371.46    8.263862  ( -0.756686   0.923277  -2.615119)
  23:       386.91    0.980968  ( -0.275957  -0.951179   0.008654)
  24:       407.59   35.968976  ( -2.255762   0.991657  -5.467827)
  25:       448.33   38.731184  (  3.045114   0.591692   5.395217)
  26:       513.05    1.868712  (  1.109342  -0.593189   0.534976)
  27:       523.33    4.292583  ( -1.285778   1.183991   1.112440)
  28:       552.19    5.319312  (  1.486966  -0.917225   1.505637)
  29:       598.03   35.177918  (  1.868490   0.967824   5.545266)
  30:       612.86    6.042425  (  1.443437  -1.636299   1.132006)
  31:       625.46    3.065940  (  1.014841   0.351013   1.383050)
  32:       654.37    5.982709  (  2.239251   0.299271  -0.937497)
  33:       690.10   36.349607  ( -0.481758  -5.535513   2.340002)
  34:       805.91   58.515418  (  4.662268   3.470413   4.973420)
  35:       844.29   28.028659  (  2.580867   0.179010   4.619063)
  36:       853.75  126.867886  ( -5.261630   5.366765  -8.389337)
  37:       898.12  133.832034  (  4.370283  10.239135  -3.145279)
  38:       922.42   15.313802  (  0.999394  -2.200794   3.077583)
  39:       928.71    1.288148  ( -0.104776  -0.897026  -0.687397)
  40:       981.92    2.211631  (  0.614918  -1.337941   0.208378)
  41:       989.23    1.879891  (  1.076193   0.511299  -0.678435)
  42:       999.32    0.122345  (  0.052575  -0.267816  -0.218760)
  43:      1039.04    0.737945  (  0.283996  -0.077160   0.807055)
  44:      1058.40   51.908075  (  4.015059   0.186930  -5.979334)
  45:      1064.20   40.479035  ( -3.103560   2.378756   5.018811)
  46:      1066.94   41.781490  (  5.010913  -3.135236   2.615825)
  47:      1071.00   34.875056  (  0.588398   4.618873  -3.632472)
  48:      1085.02   23.215318  (  1.397223   4.490437  -1.048363)
  49:      1216.41   82.204554  ( -6.909092   5.357715   2.400810)
  50:      1224.64   32.661931  ( -2.887439   1.187573  -4.786888)
  51:      1246.77  124.343368  (  6.430797   1.003918   9.054301)
  52:      1272.03    3.615397  ( -0.478438   1.348085  -1.252661)
  53:      1283.75    4.956250  ( -2.145565  -0.343480  -0.484584)
  54:      1286.12    1.669884  ( -0.951025  -0.671617  -0.560683)
  55:      1341.87   21.296928  (  3.055129   0.099281   3.457348)
  56:      1416.68   43.402009  ( -5.312771   3.662172  -1.328523)
  57:      1446.73  158.283246  ( -5.401197   3.616068 -10.771925)
  58:      1447.93  368.220837  ( -0.665538  -1.723493  19.099934)
  59:      1449.65   16.225264  (  0.956700   2.005961   3.359481)
  60:      1472.09    3.281158  (  0.184854   1.668370  -0.680829)
  61:      1523.97    0.829731  (  0.891940  -0.084789   0.164269)
  62:      1528.29    0.772593  ( -0.650475   0.585197  -0.083780)
  63:      1530.29    9.667625  (  2.788952  -1.373599   0.050952)
  64:      1534.59  112.031914  ( -7.979500   6.944723   0.360982)
  65:      1544.18   20.310638  ( -1.522745   2.985348  -3.013235)
  66:      1546.53   22.001887  (  3.333428  -0.573509  -3.249805)
  67:      1550.03    2.243728  ( -0.594141  -0.107682  -1.370813)
  68:      1555.88   18.024410  (  2.342111   2.643799   2.355685)
  69:      1704.31  241.015849  (-12.413483   9.205903   1.473981)
  70:      1712.60   32.830412  (  0.732163  -0.039136   5.682677)
  71:      3099.27   20.287361  (  2.211254   2.886887  -2.657743)
  72:      3100.17   26.269675  ( -4.339652   2.708106  -0.321344)
  73:      3103.84   59.549385  (  3.185333   3.009788   6.351710)
  74:      3177.43   17.295605  ( -0.683303  -2.283186  -3.408191)
  75:      3178.05    5.642625  (  2.049827  -0.329740   1.154168)
  76:      3181.04   37.897732  ( -2.895107  -4.065848  -3.603466)
  77:      3186.72   18.443486  (  3.318682  -2.479762   1.131644)
  78:      3190.26   18.069207  ( -3.416440   0.620404   2.451988)
  79:      3202.04   16.701185  ( -0.481607  -2.550081   3.156949)
  80:      3239.46   12.446391  ( -0.848683   0.296933  -3.411445)
  81:      3284.58    6.144521  ( -1.491548   0.776626  -1.821170)
  82:      3292.57    2.276430  ( -0.405055   0.402450   1.396565)
  83:      3297.74   16.585427  (  0.833127  -0.442934   3.961709)

The first frequency considered to be a vibration is 7
The total number of vibrations considered is 77


--------------------------
THERMOCHEMISTRY AT 298.15K
--------------------------

Temperature         ... 298.15 K
Pressure            ... 1.00 atm
Total Mass          ... 230.19 AMU

Throughout the following assumptions are being made:
  (1) The electronic state is orbitally nondegenerate
  (2) There are no thermally accessible electronically excited states
  (3) Hindered rotations indicated by low frequency modes are not
      treated as such but are treated as vibrations and this may
      cause some error
  (4) All equations used are the standard statistical mechanics
      equations for an ideal gas
  (5) All vibrations are strictly harmonic

freq.      31.65  E(vib)   ...       0.55 
freq.      44.35  E(vib)   ...       0.53 
freq.      56.70  E(vib)   ...       0.52 
freq.     106.00  E(vib)   ...       0.45 
freq.     138.97  E(vib)   ...       0.42 
freq.     206.02  E(vib)   ...       0.35 
freq.     227.08  E(vib)   ...       0.33 
freq.     239.29  E(vib)   ...       0.31 
freq.     243.89  E(vib)   ...       0.31 
freq.     264.33  E(vib)   ...       0.29 
freq.     267.18  E(vib)   ...       0.29 
freq.     292.67  E(vib)   ...       0.27 
freq.     302.92  E(vib)   ...       0.26 
freq.     308.54  E(vib)   ...       0.26 
freq.     347.69  E(vib)   ...       0.23 
freq.     371.46  E(vib)   ...       0.21 
freq.     386.91  E(vib)   ...       0.20 
freq.     407.59  E(vib)   ...       0.19 
freq.     448.33  E(vib)   ...       0.17 
freq.     513.05  E(vib)   ...       0.13 
freq.     523.33  E(vib)   ...       0.13 
freq.     552.19  E(vib)   ...       0.12 
freq.     598.03  E(vib)   ...       0.10 
freq.     612.86  E(vib)   ...       0.10 
freq.     625.46  E(vib)   ...       0.09 
freq.     654.37  E(vib)   ...       0.08 
freq.     690.10  E(vib)   ...       0.07 
freq.     805.91  E(vib)   ...       0.05 
freq.     844.29  E(vib)   ...       0.04 
freq.     853.75  E(vib)   ...       0.04 
freq.     898.12  E(vib)   ...       0.03 
freq.     922.42  E(vib)   ...       0.03 
freq.     928.71  E(vib)   ...       0.03 
freq.     981.92  E(vib)   ...       0.02 
freq.     989.23  E(vib)   ...       0.02 
freq.     999.32  E(vib)   ...       0.02 
freq.    1039.04  E(vib)   ...       0.02 
freq.    1058.40  E(vib)   ...       0.02 
freq.    1064.20  E(vib)   ...       0.02 
freq.    1066.94  E(vib)   ...       0.02 
freq.    1071.00  E(vib)   ...       0.02 
freq.    1085.02  E(vib)   ...       0.02 
freq.    1216.41  E(vib)   ...       0.01 
freq.    1224.64  E(vib)   ...       0.01 
freq.    1246.77  E(vib)   ...       0.01 
freq.    1272.03  E(vib)   ...       0.01 
freq.    1283.75  E(vib)   ...       0.01 
freq.    1286.12  E(vib)   ...       0.01 
freq.    1341.87  E(vib)   ...       0.01 
freq.    1416.68  E(vib)   ...       0.00 
freq.    1446.73  E(vib)   ...       0.00 
freq.    1447.93  E(vib)   ...       0.00 
freq.    1449.65  E(vib)   ...       0.00 
freq.    1472.09  E(vib)   ...       0.00 
freq.    1523.97  E(vib)   ...       0.00 
freq.    1528.29  E(vib)   ...       0.00 
freq.    1530.29  E(vib)   ...       0.00 
freq.    1534.59  E(vib)   ...       0.00 
freq.    1544.18  E(vib)   ...       0.00 
freq.    1546.53  E(vib)   ...       0.00 
freq.    1550.03  E(vib)   ...       0.00 
freq.    1555.88  E(vib)   ...       0.00 
freq.    1704.31  E(vib)   ...       0.00 
freq.    1712.60  E(vib)   ...       0.00 
freq.    3099.27  E(vib)   ...       0.00 
freq.    3100.17  E(vib)   ...       0.00 
freq.    3103.84  E(vib)   ...       0.00 
freq.    3177.43  E(vib)   ...       0.00 
freq.    3178.05  E(vib)   ...       0.00 
freq.    3181.04  E(vib)   ...       0.00 
freq.    3186.72  E(vib)   ...       0.00 
freq.    3190.26  E(vib)   ...       0.00 
freq.    3202.04  E(vib)   ...       0.00 
freq.    3239.46  E(vib)   ...       0.00 
freq.    3284.58  E(vib)   ...       0.00 
freq.    3292.57  E(vib)   ...       0.00 
freq.    3297.74  E(vib)   ...       0.00 

------------
INNER ENERGY
------------

The inner energy is: U= E(el) + E(ZPE) + E(vib) + E(rot) + E(trans)
    E(el)   - is the total energy from the electronic structure calculation
              = E(kin-el) + E(nuc-el) + E(el-el) + E(nuc-nuc)
    E(ZPE)  - the the zero temperature vibrational energy from the frequency calculation
    E(vib)  - the the finite temperature correction to E(ZPE) due to population
              of excited vibrational states
    E(rot)  - is the rotational thermal energy
    E(trans)- is the translational thermal energy

Summary of contributions to the inner energy U:
Electronic energy                ...  -1041.31114887 Eh
Zero point energy                ...      0.22197952 Eh     139.29 kcal/mol
Thermal vibrational correction   ...      0.01189837 Eh       7.47 kcal/mol
Thermal rotational correction    ...      0.00141627 Eh       0.89 kcal/mol
Thermal translational correction ...      0.00141627 Eh       0.89 kcal/mol
-----------------------------------------------------------------------
Total thermal energy                  -1041.07443844 Eh


Summary of corrections to the electronic energy:
(perhaps to be used in another calculation)
Total thermal correction                  0.01473091 Eh       9.24 kcal/mol
Non-thermal (ZPE) correction              0.22197952 Eh     139.29 kcal/mol
-----------------------------------------------------------------------
Total correction                          0.23671043 Eh     148.54 kcal/mol


--------
ENTHALPY
--------

The enthalpy is H = U + kB*T
                kB is Boltzmann's constant
Total free energy                 ...  -1041.07443844 Eh 
Thermal Enthalpy correction       ...      0.00094421 Eh       0.59 kcal/mol
-----------------------------------------------------------------------
Total Enthalpy                    ...  -1041.07349423 Eh


Note: Only C1 symmetry has been detected, increase convergence thresholds 
      if your molecule has a higher symmetry. Symmetry factor of 1.0 is   
      used for the rotational entropy correction. 
 

Note: Rotational entropy computed according to Herzberg 
Infrared and Raman Spectra, Chapter V,1, Van Nostrand Reinhold, 1945 
Point Group:  C1, Symmetry Number:   1  
Rotational constants in cm-1:     0.032914     0.008596     0.007844 

Vibrational entropy computed according to the QRRHO of S. Grimme
Chem.Eur.J. 2012 18 9955


-------
ENTROPY
-------

The entropy contributions are T*S = T*(S(el)+S(vib)+S(rot)+S(trans))
     S(el)   - electronic entropy
     S(vib)  - vibrational entropy
     S(rot)  - rotational entropy
     S(trans)- translational entropy
The entropies will be listed as mutliplied by the temperature to get
units of energy

Electronic entropy                ...      0.00000000 Eh      0.00 kcal/mol
Vibrational entropy               ...      0.02043073 Eh     12.82 kcal/mol
Rotational entropy                ...      0.01565664 Eh      9.82 kcal/mol
Translational entropy             ...      0.02005206 Eh     12.58 kcal/mol
-----------------------------------------------------------------------
Final entropy term                ...      0.05613943 Eh     35.23 kcal/mol

In case the symmetry of your molecule has not been determined correctly
or in case you have a reason to use a different symmetry number we print 
out the resulting rotational entropy values for sn=1,12 :
 --------------------------------------------------------
|  sn= 1 | S(rot)=       0.01565664 Eh      9.82 kcal/mol|
|  sn= 2 | S(rot)=       0.01500218 Eh      9.41 kcal/mol|
|  sn= 3 | S(rot)=       0.01461935 Eh      9.17 kcal/mol|
|  sn= 4 | S(rot)=       0.01434773 Eh      9.00 kcal/mol|
|  sn= 5 | S(rot)=       0.01413704 Eh      8.87 kcal/mol|
|  sn= 6 | S(rot)=       0.01396489 Eh      8.76 kcal/mol|
|  sn= 7 | S(rot)=       0.01381935 Eh      8.67 kcal/mol|
|  sn= 8 | S(rot)=       0.01369327 Eh      8.59 kcal/mol|
|  sn= 9 | S(rot)=       0.01358206 Eh      8.52 kcal/mol|
|  sn=10 | S(rot)=       0.01348258 Eh      8.46 kcal/mol|
|  sn=11 | S(rot)=       0.01339259 Eh      8.40 kcal/mol|
|  sn=12 | S(rot)=       0.01331044 Eh      8.35 kcal/mol|
 --------------------------------------------------------


-------------------
GIBBS FREE ENERGY
-------------------

The Gibbs free energy is G = H - T*S

Total enthalpy                    ...  -1041.07349423 Eh 
Total entropy correction          ...     -0.05613943 Eh    -35.23 kcal/mol
-----------------------------------------------------------------------
Final Gibbs free energy         ...  -1041.12963367 Eh

For completeness - the Gibbs free energy minus the electronic energy
G-E(el)                           ...      0.18151520 Eh    113.90 kcal/mol


Timings for individual modules:

Sum of individual times         ...     5393.259 sec (=  89.888 min)
GTO integral calculation        ...       13.024 sec (=   0.217 min)   0.2 %
SCF iterations                  ...      535.488 sec (=   8.925 min)   9.9 %
SCF Gradient evaluation         ...      165.072 sec (=   2.751 min)   3.1 %
Geometry relaxation             ...        6.254 sec (=   0.104 min)   0.1 %
Analytical frequency calculation...     4673.420 sec (=  77.890 min)  86.7 %
                             ****ORCA TERMINATED NORMALLY****
TOTAL RUN TIME: 0 days 1 hours 30 minutes 2 seconds 904 msec
